formula,band_gap
Cs2ScInI6,1.9467999999999999
Cs2ScTlBr6,3.1371
Cs2ScTlCl6,3.5792
Cs2ScTlF6,5.2805
Cs2ScTlI6,2.4146
Cs2Se,1.7952000000000001
Cs2Se,1.8026999999999997
Cs2Se,2.1827
Cs2Se,1.8268999999999997
Cs2Se,1.5913
Cs2Se,1.6602999999999999
Cs2Se,1.5571
Cs2Se,1.2841
Cs2Se,1.7441
Cs2Se3,0.7396
Cs2Se5,0.9618
Cs2SeCl6,2.7509
Cs2SeClF6,0.0
Cs2SeO4,3.8216
Cs2Si(HO2)2,3.7654
Cs2Si(HO2)2,3.8831999999999995
Cs2Si(S2O7)3,5.2785
Cs2Si2O5,4.1909
Cs2Si2Se5,2.4621
Cs2Si3SnO9,3.7921
Cs2SiAs2,1.0347
Cs2SiB4O9,4.8121
Cs2SiF6,6.8901
Cs2SiO3,3.3766
Cs2SiP2,1.2699000000000003
Cs2SiP4(HO7)2,5.1811
Cs2SiS3,2.9485
Cs2SiSe4,1.9385000000000003
Cs2SmAgCl6,3.8478000000000003
Cs2SmAuCl6,2.23
Cs2SmCuCl6,2.57
Cs2Sn(AuS2)2,2.0449
Cs2Sn(GeO3)3,2.6073
Cs2Sn(H2N)6,2.5332
Cs2Sn(HO2)6,2.5642
Cs2Sn2Hg3S8,1.6243
Cs2Sn2O3,2.5267
Cs2Sn3(SbS5)2,1.8595000000000002
Cs2Sn3HgSe8,1.2033999999999998
Cs2SnAs2,0.7669000000000001
Cs2SnAs2Se9,0.7742000000000002
Cs2SnBr6,1.4388999999999998
Cs2SnCl6,2.59
Cs2SnF6,5.3369
Cs2SnI6,0.29379999999999984
Cs2SnO3,2.386
Cs2SnS14,1.2744
Cs2SnSe3,1.7235999999999998
Cs2SnTe4,0.633
Cs2Sr2(CO3)3,4.6235
Cs2Sr2Li3B3(PO4)6,5.6029
Cs2Sr2O3,2.1334
Cs2SrN12,3.975
Cs2SrP2O7,4.8534999999999995
Cs2SrV4O12,2.6812
Cs2Ta6PbCl18,1.4561000000000002
Cs2TaAgBr6,0.0
Cs2TaAgF6,0.2824
Cs2TaAgI6,0.0
Cs2TaAgS4,2.5939
Cs2TaAuF6,1.1619
Cs2TaCl6,0.0
Cs2TaCuF6,0.41079999999999983
Cs2TaHgF6,0.0
Cs2TaTlF6,0.0
Cs2Tb6Te7N2,0.6191
Cs2Tb6Te7N2,1.1408999999999998
Cs2TbAgCl6,3.8150999999999997
Cs2TbAuCl6,2.181
Cs2TbCuCl6,2.5342000000000002
Cs2TbO3,0.0
Cs2TcCl6,1.2924
Cs2TcF6,1.8113
Cs2TcI6,0.6815
Cs2Te,1.7740000000000002
Cs2Te(MoO4)3,2.5755999999999997
Cs2Te10Mo9,0.0
Cs2Te13,0.4802000000000004
Cs2Te2O5,2.6609000000000003
Cs2Te3,0.5258000000000003
Cs2Te3As,0.8325
Cs2Te4O9,2.4583
Cs2Te5,0.3998000000000004
Cs2TeBr6,2.1121
Cs2TeCl6,2.7815000000000003
Cs2TeH6(ClO3)2,3.2584
Cs2TeH6SeO10,3.3216
Cs2TeI6,1.3877
Cs2TeO3,3.5351999999999997
Cs2TeO4,2.8468999999999998
Cs2TeOF4,5.0319
Cs2TeP2H8O13,3.5688
Cs2TeS3,2.4192
Cs2Th(AsO4)2,3.6164
Cs2Th(PS3)3,2.2752999999999997
Cs2Th(Si2O5)3,4.7961
Cs2Th(Si2O5)3,4.8223
Cs2Th2P2Se13,1.6023999999999998
Cs2ThCl6,4.6873000000000005
Cs2Ti(AgS2)2,1.6053000000000002
Cs2Ti(CuSe2)2,1.3642000000000003
Cs2Ti(GeO3)3,2.9569
Cs2Ti(PO4)2,3.4477
Cs2Ti(PO4)2,3.4945
Cs2Ti(Si2O5)3,3.2901999999999996
Cs2Ti(Si2O5)3,3.5085
Cs2Ti(WO4)3,2.8344
Cs2Ti2S9,0.8578000000000001
Cs2Ti4O9,3.0106
Cs2TiCl6,2.2291
Cs2TiCu3F12,0.33390000000000003
Cs2TiI6,0.8643000000000001
Cs2TiO3,3.3373
Cs2TiP4O13,2.6910000000000003
Cs2TiS3,1.2724000000000002
Cs2TiV3(PO6)3,2.0929
Cs2TlAgBr6,0.0
Cs2TlAgCl6,0.0
Cs2TlAgF6,0.8052999999999999
Cs2TlAgI6,0.0
Cs2TlAsBr6,1.305
Cs2TlAsCl6,2.0627
Cs2TlAsF6,2.9734
Cs2TlAsI6,1.0046000000000002
Cs2TlAuBr6,0.0
Cs2TlAuCl6,0.0
Cs2TlAuF6,0.0
Cs2TlAuI6,0.0
Cs2TlBiBr6,1.7359000000000002
Cs2TlBiCl6,2.2573000000000003
Cs2TlBiF6,3.0938999999999997
Cs2TlBiI6,1.3773000000000002
Cs2TlBr5,1.276
Cs2TlCl5,1.809
Cs2TlCoF6,2.9239
Cs2TlCrF6,4.1533
Cs2TlCuBr6,0.0
Cs2TlCuCl6,0.0
Cs2TlCuF6,0.0
Cs2TlFeF6,2.9057
Cs2TlGaBr6,1.7459
Cs2TlGaCl6,2.6597
Cs2TlGaF6,4.763400000000001
Cs2TlGaH6,0.38339999999999996
Cs2TlGaI6,0.5740000000000001
Cs2TlHgBr6,0.0
Cs2TlHgCl6,0.0
Cs2TlHgF6,0.0
Cs2TlHgI6,0.0
Cs2TlInBr6,1.8255
Cs2TlInCl6,2.7015
Cs2TlInF6,3.9896
Cs2TlInH6,0.41169999999999973
Cs2TlInI6,1.4001
Cs2TlMoF6,3.8865
Cs2TlPdF6,0.0
Cs2TlRhF6,1.9056
Cs2TlRuF6,0.5579000000000001
Cs2TlSbBr6,1.2294000000000003
Cs2TlSbCl6,2.0042999999999997
Cs2TlSbF6,2.5275
Cs2TlSbI6,0.9367000000000001
Cs2TlSiH6,0.0
Cs2TlVF6,0.0
Cs2Tm2Mg(WO4)4,2.2056999999999998
Cs2Tm2Mg(WO4)4,2.1167
Cs2Tm2Mg(WO4)4,1.7610000000000001
Cs2Tm2Mg(WO4)4,2.3443000000000005
Cs2Tm2Mg(WO4)4,2.0428
Cs2TmAgCl6,3.7563
Cs2TmCl4,0.0
Cs2TmCl5,5.0095
Cs2TmCuCl6,2.4364999999999997
Cs2TmH4,0.0
Cs2U(Br2O)2,1.9545
Cs2U(Cl2O)2,2.3217
Cs2U(N2O7)2,1.7307
Cs2U(PO5)2,0.0
Cs2U(PdS2)3,0.0
Cs2U(PdSe2)3,0.0
Cs2U(PtS2)3,0.0
Cs2U(PtSe2)3,0.0
Cs2U(Si2O5)3,0.2707999999999995
Cs2U(SiO4)2,2.2215000000000003
Cs2U2Mo3O16,2.4489
Cs2U2O5,0.0
Cs2U2O7,1.6135000000000002
Cs2U2O7,1.5078
Cs2U3(TeO7)2,1.8635000000000002
Cs2U3P6(HO5)4,0.23550000000000004
Cs2U4Nb4O23,1.8384999999999998
Cs2U6Pd4S17,0.0
Cs2UAs2O9,2.1723
Cs2UBr6,0.0
Cs2UCl6,0.0
Cs2UF7,1.0356
Cs2UHg2Se5,0.0
Cs2UMoO7,1.6953000000000003
Cs2UNb6(Cl5O)3,0.0
Cs2UO4,1.8211
Cs2UP2O9,2.1519999999999997
Cs2V(OF2)2,0.3959
Cs2V(PO4)2,2.9895
Cs2V2Cu(ClO3)2,0.6694
Cs2V2H2O7,3.0862999999999996
Cs2V3O8,2.1336000000000004
Cs2V4O9,0.0
Cs2V4O9,0.09709999999999974
Cs2V5H5O16,2.4825999999999997
Cs2V5O13,1.5452000000000001
Cs2VAgF6,0.0
Cs2VAgS4,1.3867
Cs2VCl6,0.0
Cs2VF6,1.8264
Cs2VH2(OF2)2,2.8269
Cs2VHO4,3.4847
Cs2VS5O,1.634
Cs2W(OF2)2,3.1768
Cs2W3SeO12,2.443
Cs2WBr6,0.0
Cs2WCl6,0.0
Cs2WO4,4.5732
Cs2WO4,4.5316
Cs2WO8,2.9976
Cs2WS4,2.1616
Cs2Xe(BrF7)4,2.9129
Cs2YAgBr6,3.335
Cs2YAgCl6,3.8705
Cs2YAgF6,3.3465000000000003
Cs2YAgI6,2.4593999999999996
Cs2YAuBr6,1.863
Cs2YAuCl6,2.2263
Cs2YAuI6,1.1517000000000002
Cs2YCl5,4.701499999999999
Cs2YCuBr6,2.0386
Cs2YCuCl6,2.5338
Cs2YCuF6,1.4267000000000003
Cs2YCuI6,1.7212
Cs2YHgBr6,0.0
Cs2YHgCl6,0.0
Cs2YHgF6,0.0
Cs2YHgI6,0.0
Cs2YInBr6,2.9636
Cs2YInCl6,3.496
Cs2YInF6,4.0503
Cs2YInI6,0.050899999999999945
Cs2YSi4O10F,4.8312
Cs2YTlBr6,3.6928
Cs2YTlCl6,4.3248
Cs2YTlF6,4.7681000000000004
Cs2YTlI6,3.0866
Cs2Zn3S4,2.6944999999999997
Cs2Zn5P6(HO2)14,4.2843
Cs2ZnBi2S5,1.7343000000000002
Cs2ZnBr4,3.8346
Cs2ZnCl4,4.5412
Cs2ZnFe(CN)6,4.151199999999999
Cs2ZnGe3Se8,1.4028
Cs2ZnH12(SO7)2,4.8055
Cs2ZnH12(SeO7)2,3.767
Cs2ZnH4,3.8811
Cs2ZnI4,3.1791
Cs2ZnI4,3.224
Cs2ZnN12,3.7832
Cs2ZnO2,1.6950999999999998
Cs2ZnSi5O12,4.1819999999999995
Cs2ZnSn3Se8,1.2553000000000003
Cs2Zr(AgTe2)2,1.4830999999999999
Cs2Zr(IO3)6,3.4585
Cs2Zr(Si2O5)3,4.946899999999999
Cs2Zr(SiO3)3,4.789899999999999
Cs2Zr(WO4)3,2.9771
Cs2Zr2Mn(MoO4)6,2.5195
Cs2Zr2ZnH12(OF2)6,3.6776
Cs2Zr7CI18,0.11840000000000028
Cs2ZrAl2(MoO4)6,3.4682999999999997
Cs2ZrCl6,3.6531000000000002
Cs2ZrCu3F12,0.0
Cs2ZrF6,6.697699999999999
Cs2ZrFe2(MoO4)6,2.6723
Cs2ZrI6,1.8398
Cs2ZrMn(MoO4)4,2.3455
Cs2ZrMn(PO4)3,0.0
Cs2ZrO3,3.8566000000000003
Cs2ZrSe3,1.3691
Cs2ZrTlOF5,4.1464
Cs3(Cr5Se8)4,0.0020999999999999908
Cs3(Cu4Se3)2,0.0
Cs3(FeS2)2,0.0
Cs3(Na13In24)2,0.016000000000000014
Cs3(SeO4)2,0.42250000000000004
Cs3(SeO4)2,0.0
Cs3Ag(AsSe2)4,1.6042999999999998
Cs3Ag2Sb3S8,1.1315999999999997
Cs3Ag9(SbS3)4,1.5938999999999997
Cs3AlAs2,0.7389000000000001
Cs3AlBr6,3.4333
Cs3AlCl6,4.6735
Cs3AlF6,6.2623
Cs3AlGe2O7,3.4471999999999996
Cs3AlI6,2.1069999999999998
Cs3AlO3,2.3103999999999996
Cs3AlP2,0.9749000000000003
Cs3AlTe3,2.1744
Cs3As,0.0
Cs3As(PSe3)3,1.7494999999999998
Cs3As11,1.3912000000000002
Cs3As2Cl9,2.6355
Cs3As2Cl9,2.6409
Cs3As5O9,3.1425
Cs3As7,1.5702999999999998
Cs3AsBr6,2.9211
Cs3AsCl6,3.4844
Cs3AsF6,4.3032
Cs3AsI6,2.3403
Cs3AsO4,3.3566000000000003
Cs3AsSe4,1.2725
Cs3AsSe4O,1.0458
Cs3Au2Br11,1.1427
Cs3AuBr6,0.0
Cs3AuF6,0.9832000000000001
Cs3AuO,1.3261000000000003
Cs3AuO2,1.7399
Cs3B(SeO4)3,3.1535
Cs3B12H12Br,4.7566
Cs3B12H12Cl,4.9577
Cs3B12H12I,4.535
Cs3B3Se10,1.7936
Cs3B6H12S4Br,4.9166
Cs3B6H12Se4Br,4.4933000000000005
Cs3BAs2,1.4845
Cs3BAsP,1.8444
Cs3BN2,0.6065999999999998
Cs3BO3,2.4689000000000005
Cs3BP2,1.6955000000000002
Cs3BS3,2.5095
Cs3Ba4C3O9F5,4.7611
Cs3Bi,0.17899999999999983
Cs3Bi11Se18,0.8355000000000001
Cs3Bi2,0.0
Cs3Bi2(PS4)3,1.9768
Cs3Bi2Br9,2.5995999999999997
Cs3Bi2Br9,2.6140999999999996
Cs3Bi2Cl9,3.2298999999999998
Cs3Bi2Cl9,3.1024999999999996
Cs3Bi2I9,2.3423
Cs3Bi2I9,2.3796
Cs3Bi7Se12,0.6101000000000001
Cs3BiBr6,3.4221000000000004
Cs3BiCl6,3.9505
Cs3BiCl6,3.8516999999999997
Cs3BiF6,4.5888
Cs3BiF6,4.2934
Cs3BiI6,2.8318000000000003
Cs3BiO3,3.0476
Cs3BiSe3,2.0207
Cs3BrO,1.5868000000000002
Cs3Ca2Cl7,5.174799999999999
Cs3CaFe(P2O7)2,2.4361
Cs3CdBr5,3.0548
Cs3CdH5,2.7222
Cs3CdI5,2.7925
Cs3CeCl6,0.35180000000000033
Cs3CeF6,0.0
Cs3ClO,1.6127999999999998
Cs3CoBr5,0.6983
Cs3CoCl5,0.7602
Cs3CoF6,2.912
Cs3CoI4NO3,1.0972000000000002
Cs3CoI5,0.9287000000000001
Cs3Cr2Br9,1.3066
Cs3Cr2Cl9,0.26880000000000015
Cs3Cr2I9,1.0526000000000002
Cs3Cr2I9,1.0042
Cs3CrF7,0.0
Cs3Cu2(BiS2)5,0.4676
Cs3Cu20Te13,0.0
Cs3Cu2Br5,2.1310000000000002
Cs3Cu2Cl5,2.3072
Cs3Cu2I5,2.4429
Cs3Cu3Cl8O,0.022299999999999986
Cs3Cu5O4,1.6383
Cs3CuTeS9,1.1160999999999999
Cs3DyCl6,4.7826
Cs3DyO3,2.0884
Cs3DyO3,2.2585
Cs3Er2Br9,4.2885
Cs3Er2I9,2.8905
Cs3Er5(PS4)6,2.2701
Cs3ErCl6,4.8108
Cs3ErCl6,5.0846
Cs3ErO3,2.2999
Cs3ErO3,2.2503
Cs3Eu(Si2O5)3,0.6834
Cs3EuF6,0.0
Cs3Fe2Cl9,0.0
Cs3Fe2Cl9,0.24889999999999995
Cs3Fe2F9,4.036099999999999
Cs3Fe2F9,3.7489
Cs3Fe4(PO4)5,2.4953
Cs3FeBr5,0.0
Cs3FeF6,4.0085
Cs3FeF6,3.481
Cs3FeMo4O15,2.3633
Cs3FeO3,2.1129
Cs3FeS3,0.0
Cs3FeSe3,0.04500000000000015
Cs3Ga2F9,5.7462
Cs3GaAs2,0.6951999999999998
Cs3GaBr6,2.3433
Cs3GaCl6,3.6339
Cs3GaF6,5.8579
Cs3GaI6,1.1783000000000001
Cs3GaO3,2.877
Cs3GaO3,2.5333
Cs3GaO3,2.1903
Cs3GaP2,0.9444999999999997
Cs3GaSe3,2.1993
Cs3Gd(PO4)2,3.1528
Cs3GdCl6,3.1365
Cs3Ge2Sb3O13,1.7817
Cs3Ge4Au,0.9316
Cs3Ge9(H3N)2,1.1855
Cs3GeAsSe5,1.7514000000000003
Cs3GeF7,4.3869
Cs3GeSe3,1.6321
Cs3GeTe3,1.1962000000000002
Cs3H(SF6)2,4.4739
Cs3H(SeO4)2,3.4879999999999995
Cs3H(SeO4)2,3.7763
Cs3H(SeO4)2,3.447
Cs3H(SeO4)2,3.4782
Cs3H(SeO4)2,3.753
Cs3H12N4F3,4.8381
Cs3H5Pd,2.2702999999999998
Cs3H5Pt,2.1718
Cs3Hf2CuTe10,1.189
Cs3Hf2P5S18,2.1363000000000003
Cs3Hg,0.0
Cs3Hg20,0.0
Cs3HgBr5,2.484
Cs3HgCl5,2.9666
Cs3HgI5,2.035
Cs3Ho2Br9,4.0059000000000005
Cs3Ho7Se12,1.5043
Cs3HoCl6,4.7232
Cs3HoCl6,5.0609
Cs3HoO3,2.1914999999999996
Cs3HoO3,2.3008
Cs3I,0.0
Cs3IO,1.5285
Cs3IO5,1.4110999999999998
Cs3In2Cl9,3.4583999999999997
Cs3In3(PO4)4,3.1055
Cs3InBr6,2.6733000000000002
Cs3InCl6,3.7287
Cs3InF6,5.3129
Cs3InI6,1.6049
Cs3InO3,2.1174
Cs3InP2,0.7103000000000002
Cs3K,0.0
Cs3K5Mo8(P2O11)4,1.9145999999999999
Cs3KRe6C6(S4N3)2,2.1868000000000003
Cs3KZr2(Si3O10)2,0.9832999999999998
Cs3La(MoO4)3,3.7278000000000002
Cs3LaBr6,3.784
Cs3LaBr6,3.9286
Cs3LaCl6,4.7152
Cs3LaCl6,4.5827
Cs3LaI6,3.056
Cs3LaN18,3.4478999999999997
Cs3LaO3,1.7439
Cs3LaO3,1.5936999999999997
Cs3Li2Al(MoO4)4,4.2898
Cs3Li2Br5,4.5306
Cs3Li2Cl5,5.0892
Cs3Li2F5,5.7273
Cs3Li2Fe(MoO4)4,2.9686
Cs3Li2Ga(MoO4)4,4.0242
Cs3Li2I5,3.7443
Cs3Li4(BO2)7,4.5217
Cs3LiBr4,4.035
Cs3LiCl4,4.6835
Cs3LiF4,5.6548
Cs3LiI4,3.8043
Cs3LiPb4,0.7565
Cs3Mg2Cl7,4.3797999999999995
Cs3Mg3In(PO3)12,4.7217
Cs3MgH5,2.5844
Cs3Mn3V4O16,0.8896999999999999
Cs3Mn4(PO3)12,0.0
Cs3MnBr5,2.715
Cs3MnCl5,2.8966000000000003
Cs3MnF7,1.5495
Cs3MnH5,0.0
Cs3MnI5,2.0469
Cs3MnZn3(PO3)12,1.2174
Cs3Mo15Se17,0.0
Cs3Mo2(O2F)3,3.9977
Cs3Mo2Br9,1.0076
Cs3Mo2BrO7,2.8825000000000003
Cs3Mo2Cl9,0.15050000000000008
Cs3Mo2I9,0.9283000000000001
Cs3Mo2N5,1.5542
Cs3Mo5P6O25,0.22009999999999996
Cs3Mo5P7O24,1.2767
Cs3Mo6(P5O19)2,0.0
Cs3NO4,3.0787999999999993
Cs3NO4,2.6236999999999995
Cs3Na2SnP3,1.0445000000000002
Cs3NaLi2(BO3)2,3.4539999999999997
Cs3NaPb4,0.47540000000000004
Cs3Nb2AsSe11,1.0014
Cs3Nb2I9,0.43459999999999965
Cs3Nb2S11,1.5397
Cs3Nb2Se11,0.8620999999999999
Cs3Nb6SBr17,0.5779999999999998
Cs3Nb9(TeO8)4,1.4336000000000002
Cs3Nd(MoO4)3,3.7419
Cs3Nd(PS4)2,1.9674999999999998
Cs3NdCl6,4.9486
Cs3NdCr3O12,2.0942
Cs3NiCl5,0.0871
Cs3NiF7,0.8734999999999999
Cs3Np(Cl2O)2,0.2279
Cs3NpH8O9,1.6332
Cs3O,0.0
Cs3P(SeO6)2,0.009400000000000075
Cs3P11(H3N)3,1.9621000000000002
Cs3P3HO9,2.9565
Cs3P6N11,4.087899999999999
Cs3P7,2.3466000000000005
Cs3P7Pb2O21,4.9376
Cs3PO4,3.5722999999999994
Cs3PSe4,1.8309000000000002
Cs3Pb4Au,0.7054
Cs3PdF5,2.0825
Cs3PdF6,0.0
Cs3Pr(MoO4)3,3.7495000000000003
Cs3Pr5(PS4)6,2.3179
Cs3PrCl6,4.7154
Cs3PrCl6,4.895
Cs3PrF6,5.5517
Cs3PuH4O7,1.2291999999999998
Cs3PuH8O9,1.2246
Cs3Rb,0.0
Cs3Rb5(SeO4)4,3.6864
Cs3Rb5Mo12(P3O17)4,2.4576
Cs3Re2Cl10O,0.0
Cs3Re2N5,0.3266
Cs3Re3(SI)4,2.4356
Cs3Re6(S4Cl3)2,0.14480000000000004
Cs3Re6(SCl)7,2.3720999999999997
Cs3ReO5,2.0941
Cs3Rh9(CO)19,1.2189
Cs3Ru2Cl9,0.4885999999999999
Cs3Sb,0.6126
Cs3Sb2Br9,1.9837
Cs3Sb2Cl9,2.3952999999999998
Cs3Sb2Cl9,2.4898
Cs3Sb2Cl9,2.4003
Cs3Sb2I9,1.8679000000000001
Cs3Sb2I9,1.5405999999999997
Cs3Sb2N3(O3F2)3,3.1479
Cs3Sb5O14,0.9142999999999999
Cs3Sb5S9,0.6777000000000002
Cs3Sb5Se9,0.4102999999999999
Cs3SbBr6,2.8535
Cs3SbCl6,3.4949
Cs3SbF6,3.8678999999999997
Cs3SbF6,3.3907
Cs3SbH2S4O,2.197
Cs3SbI6,2.4187000000000003
Cs3SbO3,3.0838
Cs3SbO4,2.7517
Cs3SbS3,2.654
Cs3SbS4,2.1304999999999996
Cs3SbSe3,2.2748
Cs3SbSe4,1.4333
Cs3Sc2Br9,3.0319000000000003
Cs3Sc2Cl9,3.7306
Cs3Sc2I9,2.1206000000000005
Cs3ScBr6,3.3137
Cs3ScCl6,4.0753
Cs3ScCl6,3.984
Cs3ScF6,6.3471
Cs3ScF6,6.2612000000000005
Cs3ScI6,2.4426
Cs3ScO3,2.4443
Cs3ScO3,2.7287
Cs3ScO3,2.7453
Cs3SiF7,5.633800000000001
Cs3Sm(PS4)2,2.1903000000000006
Cs3Sm7Se12,1.4741
Cs3Sm7Te12,0.8645999999999998
Cs3SmCl6,4.7485
Cs3Sn4Au,0.7143999999999999
Cs3SnPSe7,1.4188999999999998
Cs3SnTe3,1.1241
Cs3Sr,0.0
Cs3SrCu2C7(SN)7,2.8882000000000003
Cs3Ta2S11,1.6882999999999997
Cs3Ta5O14,3.7884999999999995
Cs3TaO8,2.8310999999999997
Cs3TaS4,2.9443
Cs3Tb10C4Cl21,0.6788000000000003
Cs3Tb2Br9,4.0904
Cs3Tb7Te12,0.8438000000000003
Cs3TbCl6,4.782
Cs3TbF6,5.745
Cs3Te13Mo12,0.0
Cs3Te17Mo15,0.0
Cs3Te22,0.0
Cs3Ti2Cl9,0.21810000000000018
Cs3Ti3Te11,0.07900000000000018
Cs3TiF6,0.0
Cs3TiF7,2.9901
Cs3Tl2Br9,0.2108
Cs3Tl2Br9,1.1012
Cs3Tl2Cl9,2.189
Cs3TlBr6,1.6915
Cs3TlCl6,2.5484999999999998
Cs3TlF6,3.6388
Cs3TlF6,3.3184
Cs3TlI6,0.8173
Cs3TlNi3F10,4.909999999999999
Cs3TlO3,1.6198
Cs3TlO3,1.5384
Cs3Tm11Te18,0.9707000000000003
Cs3Tm2I9,2.8922
Cs3TmCl6,4.812200000000001
Cs3TmO3,2.267
Cs3TmO3,2.3148
Cs3U2Ge2O11,0.1942999999999997
Cs3U2PO10,2.1502999999999997
Cs3UF6,0.0
Cs3V2Cl9,0.0
Cs3V2O2F7,2.8433
Cs3V4Te2ClO14,2.8359
Cs3VF6,3.1001000000000003
Cs3VH8(Cl3O2)2,2.4005
Cs3VS4,1.6566
Cs3VSe4,1.4894
Cs3W2Cl9,0.26519999999999966
Cs3W2N5,1.9682
Cs3Y(PO4)2,4.4731000000000005
Cs3Y2(H2N)9,2.2297
Cs3Y2Br9,4.0443999999999996
Cs3Y2Cl9,4.8945
Cs3Y7Se12,1.5161
Cs3YBr6,4.0619
Cs3YCl6,4.7509999999999994
Cs3YF6,5.9892
Cs3YF6,5.338699999999999
Cs3YI6,3.3564
Cs3YO3,2.2826000000000004
Cs3YO3,2.3415999999999997
Cs3ZnBr5,3.6439
Cs3ZnCl5,4.2844
Cs3ZnH5,2.7476
Cs3ZnI4NO3,3.147
Cs3ZnI5,3.1447
Cs3Zr2I9,0.39559999999999995
Cs3Zr2P5S18,1.9114
Cs3Zr7BCl20,1.1953999999999998
Cs3Zr7MnCl20,1.1378
Cs4(BS)9,3.2401
Cs4(BSe)9,2.5433
Cs4AsH5Se3O16,3.802
Cs4Au6S5,2.409
Cs4Ba(PO3)6,5.106400000000001
Cs4BaV6O18,3.0382
Cs4BiAs3Se7,1.4739000000000002
Cs4BiSbCl12,0.5579
Cs4BiSbCl12,0.5768
Cs4CdNi3F12,4.4602
Cs4Co3F10,2.399
Cs4Cu(SbCl6)2,0.22129999999999983
Cs4Cu3F10,0.123
Cs4CuSi2O7,0.5831
Cs4Fe(MoO4)3,3.0126
Cs4Fe2O5,0.5232999999999999
Cs4Fe3F10,3.1395
Cs4FeO3,0.39029999999999987
Cs4FeO4,2.0001999999999995
Cs4FeSbCl12,0.0
Cs4Ga2Se5,2.1204
Cs4Ga3FeS8,0.5380999999999998
Cs4Ge(PS3)4,2.0929
Cs4Ge(PSe3)4,1.3838
Cs4GeO4,2.742
Cs4GeO4,2.8954999999999997
Cs4GeTe6,1.0706
Cs4H4SeS3O16,3.9122
Cs4Hf3Se14,1.6893999999999998
Cs4HfO4,2.7399000000000004
Cs4In2S5,2.1801
Cs4InSbCl12,1.0907
Cs4IrO4,0.3652000000000002
Cs4K2Cu(SiO4)2,0.6454999999999997
Cs4K3U3Si4O20F,2.1139
Cs4KLiFe2F12,0.0
Cs4KLiGa2F12,6.0451
Cs4La(NO3)8,0.35109999999999997
Cs4Li(Pb2O3)2,0.0
Cs4Li2(Si2O5)3,4.1657
Cs4Mg(TiS3)2,0.16100000000000003
Cs4Mg(TiS3)2,0.21330000000000027
Cs4Mg3F10,6.2806
Cs4Mg3H10,3.2805
Cs4MgMn4H16(Cl3O2)4,1.2641999999999998
Cs4MgNb2(AgS4)2,0.0
Cs4MgTi2(AgS2)4,0.0
Cs4MgZr3(PO4)6,3.7689000000000004
Cs4Mn(AsS4)2,1.0343000000000002
Cs4Mn(SbCl6)2,2.0025000000000004
Cs4Mn2PdF12,1.0821999999999998
Cs4Mn3O6,1.2663000000000002
Cs4Na2MgV2O8,0.9990000000000001
Cs4Na2MgV2O8,1.2964000000000002
Cs4Na2ScGaF12,6.3149999999999995
Cs4NaHf3H2F19,6.8635
Cs4Nb2S11,1.4593
Cs4Nb2Si8O23,3.7001999999999997
Cs4Ni3F10,4.4276
Cs4O3,0.0
Cs4Os2Cl10O,0.8307
Cs4P2PdSe8,1.4224
Cs4P2Se9,1.4457999999999998
Cs4Pb9,0.7601999999999998
Cs4PbBr6,3.8959
Cs4PbCl6,4.289
Cs4PbI6,3.4095
Cs4PbO3,1.6856
Cs4PbO4,1.7688999999999997
Cs4Pr6C2I13,0.0
Cs4Pr6OsI13,0.05010000000000003
Cs4Rb2Fe2O5,1.4865000000000002
Cs4Re6C4S9N4,1.4641000000000002
Cs4Re6S13,1.3348999999999998
Cs4Re6Se13,1.0021999999999998
Cs4Ru2Cl10O,0.6547
Cs4Sb14S23,1.3784999999999998
Cs4Sb2O5,2.5754
Cs4Sc6CCl13,0.0
Cs4Si3O8,3.6580000000000004
Cs4SiO4,2.4373
Cs4SiO4,2.5639
Cs4SiSe4,2.2150999999999996
Cs4SiTe4,1.8365999999999998
Cs4Sn21Hg2,0.24110000000000031
Cs4Sn23,0.0
Cs4Sn2Au7,0.0
Cs4Sn2Te7,1.1412
Cs4SnO4,2.3406000000000002
Cs4Sr(SnSe3)3,1.6162
Cs4Sr3(PO3)12,0.0
Cs4Ta2S11,1.7479999999999998
Cs4Tc6S13,0.9311999999999996
Cs4TeSe15,1.0499999999999998
Cs4Th2P5Se17,1.3128
Cs4Ti3S14,1.2347000000000001
Cs4Tl2O,0.0
Cs4TlSbCl12,0.9171
Cs4TlSbCl12,0.76
Cs4U(Ge2O5)4,0.012199999999999989
Cs4U2V2O13,2.0504
Cs4U3Mo3O20,2.0623
Cs4U3Si4O17,0.0235000000000003
Cs4U5O17,1.5343
Cs4UC3O11,2.0837000000000003
Cs4V2S4O3,1.9412000000000003
Cs4Zn3F10,4.4371
Cs4ZnO3,1.6802
Cs4Zr3Mn(PO4)6,2.7516000000000003
Cs4Zr3S14,1.4329000000000003
Cs4Zr3Se14,1.2226
Cs4Zr3Te16,0.8069999999999999
Cs4Zr6BBr17,1.0312000000000001
Cs4ZrO4,3.2093000000000003
Cs5(KPb6)3,0.7385999999999999
Cs5(SO4)4,0.0
Cs5Ag4C8IN8,2.6729
Cs5As(PSe3)4,1.4867
Cs5As5Se9,1.2854
Cs5Bi(MoO4)4,3.5996
Cs5Bi(MoO4)4,3.7104
Cs5CaNi4F15,5.055899999999999
Cs5CoAgCl8,0.5924
Cs5FeO4,1.3283
Cs5FeO4,0.7626999999999997
Cs5Ga3Se7,2.0982000000000003
Cs5GeAs3,0.5621
Cs5GeP3,0.8685
Cs5Hg19,0.0
Cs5In3As4,0.9739000000000004
Cs5Mo21Se23,0.0
Cs5Mo8P(H3O16)2,3.5554
Cs5Na(W2N5)2,1.8500999999999999
Cs5Nb2S4Br9,1.775
Cs5Nb2S4Cl9,1.7925
Cs5Re6S8Cl7,2.6061
Cs5Sb8,0.5847000000000002
Cs5Si3AgO9,2.6818
Cs5SiAs3,0.6071999999999997
Cs5SiP3,0.8416000000000001
Cs5Tc6S8Br7,1.7601
Cs5Te3,0.5119999999999998
Cs5Te3H4NCl18,2.6576
Cs5Th(PS4)3,2.0219
Cs5Ti6AgSe27,0.5903999999999998
Cs5Tl11Cd2,0.0
Cs5U2S4ICl8,0.0
Cs5V5FeCl6O13,0.0
Cs5YO4,1.9342000000000001
Cs5YO4,1.6241
Cs6Bi4O9,2.3603
Cs6Br4O,1.8137999999999999
Cs6Cl4O,1.9928
Cs6Co2O7,1.0359999999999998
Cs6Cr2O7,1.6439999999999997
Cs6Dy21S34Cl,1.9469
Cs6Dy21Te34Cl,0.8855999999999997
Cs6Fe2O5,0.2256999999999998
Cs6Fe2O5,0.0
Cs6GaSb3,0.44110000000000005
Cs6Ge2O7,2.9085
Cs6Hf5(O2F13)2,0.0246000000000004
Cs6Ho21S34Cl,1.9586
Cs6Ho21Te34Cl,0.8943999999999996
Cs6InAs3,0.4969999999999999
Cs6K3AlSb4,0.6537000000000002
Cs6K3GaSb4,0.6364999999999998
Cs6K7,0.0
Cs6MgNp2(H8O9)2,0.6798000000000002
Cs6Mo4C10S2O27,0.0756
Cs6Na2Nb6H36O37,3.6052999999999997
Cs6Na4Tl13,0.0
Cs6ReN4,0.0
Cs6Si2NiO8,3.087
Cs6Si2O7,3.1666999999999996
Cs6Ti2O7,3.6622000000000003
Cs6U2(Cu4S5)3,0.4981
Cs6U5(AsO7)4,2.0327
Cs6ZnGe8,0.9847000000000001
Cs7(FeS2)4,0.24160000000000004
Cs7(In2Bi3)2,0.3083
Cs7(InAs2)3,0.3476999999999997
Cs7Au5O2,0.8031999999999999
Cs7Cd3Br13,2.9374000000000002
Cs7Co4F15,3.0056
Cs7Cu6F19,0.5169999999999999
Cs7Fe4F15,3.431
Cs7LiAu5O2,0.0
Cs7Mo8AsO30,2.9833999999999996
Cs7NaSi8,1.5773000000000001
Cs7NbIn3As5,1.1113
Cs7Ni4F15,4.9957
Cs7Np3(Cl2O)6,0.0
Cs7O,0.0
Cs7U8V2ClO32,1.5212999999999999
Cs8(Re4S9)3,1.4297999999999997
Cs8Fe2O7,1.7378
Cs8Ga11,0.0
Cs8Ga11Cl,0.9259999999999997
Cs8In2O7,1.8541
Cs8Mg(Sn2O3)4,1.3883999999999999
Cs8Mg(Sn2O3)4,0.9988000000000001
Cs8Mg(Sn2O3)4,1.1006
Cs8Na4Y3HoCl24,5.0565
Cs8Na4Y3HoCl24,5.0785
Cs8Na4YHo3Cl24,5.1424
Cs8Ta6O19,3.4757000000000002
Cs8Tl8O,0.2062999999999997
Cs8Zr(MoO4)6,3.8513
Cs9(NbAs3)2,0.30989999999999984
Cs9AlO4,0.0
Cs9Fe2S7,0.26160000000000005
Cs9Fe2Se7,0.5129999999999999
CsAcTe2,0.8775000000000004
CsAg(BH)10,3.9226
CsAg(NO3)2,2.6458000000000004
CsAg2(B5O8)3,3.5033000000000003
CsAg2AsS3,1.6273000000000002
CsAg2BiS3,1.0803000000000003
CsAg2I3,2.2789
CsAg3S2,0.4114
CsAg3Se2,0.19179999999999975
CsAg3Te2,0.4034
CsAg5Se3,0.0030999999999998806
CsAg5Te3,0.020099999999999785
CsAg7S4,0.49639999999999995
CsAgBr2,2.0566
CsAgBr2,1.7972
CsAgBr3,0.0
CsAgCl2,2.3352999999999997
CsAgCl2,2.2009999999999996
CsAgCl3,0.0
CsAgF3,0.0
CsAgO,1.4719000000000002
CsAgO2,1.1055
CsAgPSe3,1.4308
CsAgSb4S7,1.6886999999999999
CsAgSe4,1.2669
CsAl(H2N)4,2.9105
CsAl(MoO4)2,3.8773
CsAl(SiO3)2,4.7668
CsAl3(P3O10)2,5.3415
CsAl3(SiO4)3,3.0296000000000003
CsAlAgF6,0.0
CsAlAs3H5O12,3.4114
CsAlBP2HO9,5.2653
CsAlBr4,4.2876
CsAlCl4,5.3909
CsAlCuF6,0.0
CsAlF4,6.7415
CsAlF4,6.977
CsAlF4,6.4196
CsAlFe3(SiO4)3,2.0275
CsAlH24(SO10)2,5.2787
CsAlH24(SeO10)2,4.2024
CsAlH4(OF2)2,6.3210999999999995
CsAlNiF6,5.4309
CsAlO2,4.273499999999999
CsAlPdF6,0.0
CsAlSi5O12,4.5621
CsAlSiO4,4.466799999999999
CsAlSiO4,4.458200000000001
CsAlTe3,1.3209
CsAlV(PO5)2,0.6073999999999999
CsAlVP2(HO5)2,2.769
CsAlZnF6,5.4077
CsAs(HO2)2,3.8922
CsAs2Se3,1.3891
CsAs3O8,2.2357