formula,band_gap
Li4Mn2(PO4)3,4.1215
Li4Mn2C4SO16,0.7852
Li4Mn2Co3Cu3O16,0.0
Li4Mn2Co3Ni3O16,0.0
Li4Mn2Co3O10,0.0
Li4Mn2Co3Sb3O16,0.0
Li4Mn2Co3Sn3O16,0.11909999999999954
Li4Mn2Co3Sn3O16,0.0
Li4Mn2Co3Te3O16,0.48399999999999954
Li4Mn2Co5O12,0.4716
Li4Mn2Cr3Co3O16,0.0
Li4Mn2Cr3Fe3O16,0.0
Li4Mn2Cr3Sb3O16,0.12300000000000022
Li4Mn2Cr3Sn3O16,0.039899999999999824
Li4Mn2CrNi3(PO4)6,3.5709
Li4Mn2Cu3O10,0.0
Li4Mn2Cu3Sn3O16,0.0
Li4Mn2Fe(BO3)4,1.3266
Li4Mn2Fe3Co3O16,0.0
Li4Mn2Fe3Cu3O16,0.0
Li4Mn2Fe3Ni3O16,0.0
Li4Mn2Fe3P6WO24,2.1268000000000002
Li4Mn2Fe3Sb(PO4)6,1.1098999999999997
Li4Mn2Fe3Sb3O16,0.0
Li4Mn2Fe3Sn(PO4)6,2.5061
Li4Mn2Fe3Sn3O16,0.6858999999999997
Li4Mn2Fe3Te3O16,0.8597999999999999
Li4Mn2FeNi3(PO4)6,0.0
Li4Mn2Nb3Co3O16,0.5815999999999999
Li4Mn2Nb3Cr3O16,0.10729999999999995
Li4Mn2Nb3Fe3O16,0.19570000000000043
Li4Mn2Nb3V3O16,0.0
Li4Mn2NbNi3(PO4)6,0.4878999999999998
Li4Mn2Ni3O10,0.0
Li4Mn2Ni3Sb3O16,0.0
Li4Mn2Ni3Sn(PO4)6,0.49839999999999973
Li4Mn2Ni3Sn3O16,0.0
Li4Mn2Ni5O12,0.0
Li4Mn2OF7,0.9575
Li4Mn2P4H3O16,0.5505
Li4Mn2Si3O10,3.0154000000000005
Li4Mn2Si4O13,1.4366999999999996
Li4Mn2TeWO12,1.1174999999999997
Li4Mn2V3Cr3O16,0.4346000000000001
Li4Mn2V3O12,0.7118
Li4Mn2V3Sb3O16,0.0
Li4Mn2V3Sn3O16,1.0476
Li4Mn2V5O12,1.0038
Li4Mn2VNi3(PO4)6,0.8949999999999996
Li4Mn3(BO3)4,0.4946999999999999
Li4Mn3(CoO4)3,0.9449999999999998
Li4Mn3(CoO4)3,0.0
Li4Mn3(FeO4)3,0.0
Li4Mn3(FeO5)2,0.0
Li4Mn3(NiO4)3,0.1532
Li4Mn3(OF3)2,2.2634999999999996
Li4Mn3(OF3)3,0.5235000000000001
Li4Mn3(PO4)4,0.13809999999999967
Li4Mn3(SnO5)2,0.24929999999999986
Li4Mn3Cl10,0.9009999999999998
Li4Mn3Co(PO4)4,1.9345000000000003
Li4Mn3Co2Ni3O16,0.0
Li4Mn3Co2Sb3O16,0.0
Li4Mn3Co2Sn3O16,0.0
Li4Mn3Co2Te3O16,0.16389999999999993
Li4Mn3Co3(NiO8)2,0.6252
Li4Mn3Co3(SbO8)2,0.0123000000000002
Li4Mn3Co3(SbO8)2,0.0
Li4Mn3Co3(SnO8)2,0.5623999999999998
Li4Mn3Co3(SnO8)2,0.0
Li4Mn3Co3(TeO8)2,0.0
Li4Mn3Co3(WO8)2,0.3201999999999998
Li4Mn3Co5O16,0.0
Li4Mn3CoCu2(PO4)6,0.0
Li4Mn3CoO8,0.0
Li4Mn3CoO8,0.030299999999999994
Li4Mn3CoO8,0.4838
Li4Mn3CoO8,0.5448999999999997
Li4Mn3CoO8,0.43989999999999974
Li4Mn3CoO8,0.8424999999999998
Li4Mn3CoO8,0.2755000000000001
Li4Mn3CoO8,1.0659999999999998
Li4Mn3CoO8,0.1958000000000002
Li4Mn3CoO8,1.1311
Li4Mn3CoO8,0.4163999999999999
Li4Mn3CoO8,0.5428999999999999
Li4Mn3CoO8,0.8420000000000001
Li4Mn3CoO8,0.7460999999999998
Li4Mn3CoO8,0.7414000000000001
Li4Mn3CoO8,0.4860000000000002
Li4Mn3CoO8,0.05719999999999992
Li4Mn3CoO8,1.0518999999999998
Li4Mn3CoO8,0.8137000000000003
Li4Mn3CoO8,0.266
Li4Mn3CoO8,0.5396999999999998
Li4Mn3CoO8,0.8926999999999996
Li4Mn3CoO8,0.7444000000000002
Li4Mn3CoO8,0.38400000000000034
Li4Mn3CoO8,0.5611999999999999
Li4Mn3CoO8,0.9116
Li4Mn3CoO8,0.8927999999999998
Li4Mn3CoO8,0.8881000000000001
Li4Mn3CoO8,0.45130000000000026
Li4Mn3Cr(PO4)4,2.1329
Li4Mn3Cr2Co3O16,0.0
Li4Mn3Cr2Fe3O16,0.0
Li4Mn3Cr2O10,0.3176000000000001
Li4Mn3Cr2Sb3O16,0.07420000000000027
Li4Mn3Cr2Sn(PO4)6,1.915
Li4Mn3Cr2Sn3O16,0.19809999999999972
Li4Mn3Cr3(CoO8)2,0.0
Li4Mn3Cr3(FeO8)2,0.07609999999999983
Li4Mn3Cr3(FeO8)2,0.6196999999999999
Li4Mn3Cr3(NiO8)2,0.6302000000000003
Li4Mn3Cr3(SbO8)2,0.25009999999999977
Li4Mn3Cr3(SnO8)2,0.0
Li4Mn3Cr3(TeO8)2,0.0484
Li4Mn3Cr3(WO8)2,0.0
Li4Mn3Cr3O12,0.2591999999999999
Li4Mn3Cr3O12,0.0
Li4Mn3Cr5O16,0.24029999999999996
Li4Mn3CrCo2(PO4)6,0.3939999999999997
Li4Mn3CrO8,0.9579
Li4Mn3Cu(PO4)4,0.0
Li4Mn3Cu2Sb3O16,0.0
Li4Mn3Cu2Sn3O16,0.10020000000000007
Li4Mn3Cu3(SbO8)2,0.0
Li4Mn3Cu3(SnO8)2,0.0
Li4Mn3Cu3(TeO8)2,0.0
Li4Mn3Cu3(WO8)2,0.0
Li4Mn3CuNi2(PO4)6,0.0
Li4Mn3CuO8,0.0
Li4Mn3F10,2.7494
Li4Mn3F10,3.2447999999999997
Li4Mn3F10,2.996
Li4Mn3Fe(BO3)4,2.9568
Li4Mn3Fe(BO3)4,3.0044
Li4Mn3Fe(BO3)4,2.6745
Li4Mn3Fe(BO3)4,2.6651999999999996
Li4Mn3Fe(BO3)4,2.9671
Li4Mn3Fe(BO3)4,3.0413000000000006
Li4Mn3Fe(BO3)4,2.6555999999999997
Li4Mn3Fe(BO3)4,2.9219999999999997
Li4Mn3Fe(BO3)4,2.6609999999999996
Li4Mn3Fe(BO3)4,3.0094000000000003
Li4Mn3Fe(BO3)4,3.0309
Li4Mn3Fe(BO3)4,2.9659999999999997
Li4Mn3Fe(BO3)4,2.6613000000000007
Li4Mn3Fe(BO3)4,2.9699999999999998
Li4Mn3Fe(BO3)4,2.6578
Li4Mn3Fe(BO3)4,2.997
Li4Mn3Fe(BO3)4,2.9713
Li4Mn3Fe(BO3)4,2.9000000000000004
Li4Mn3Fe(BO3)4,3.0329000000000006
Li4Mn3Fe(BO3)4,2.9509000000000007
Li4Mn3Fe(PO4)4,3.4034
Li4Mn3Fe(PO4)4,3.1382
Li4Mn3Fe(PO4)4,3.566
Li4Mn3Fe2Co3O16,0.0
Li4Mn3Fe2Cu3O16,0.0
Li4Mn3Fe2Ni3O16,0.0
Li4Mn3Fe2Sb3O16,0.0
Li4Mn3Fe2Sn(PO4)6,2.0245999999999995
Li4Mn3Fe2Sn3O16,0.0
Li4Mn3Fe2Sn3O16,0.2812999999999999
Li4Mn3Fe3(CoO8)2,0.0
Li4Mn3Fe3(CuO8)2,0.0
Li4Mn3Fe3(NiO8)2,0.0
Li4Mn3Fe3(PO4)6,0.4884999999999997
Li4Mn3Fe3(SbO8)2,0.2783000000000002
Li4Mn3Fe3(TeO8)2,0.12069999999999936
Li4Mn3Fe3(WO8)2,0.0
Li4Mn3Fe5O16,0.0
Li4Mn3FeO8,0.1513
Li4Mn3Nb(PO4)4,0.32259999999999955
Li4Mn3Nb2Co3O16,0.0
Li4Mn3Nb2Cr3O16,0.6616
Li4Mn3Nb2Cu3O16,0.018199999999999772
Li4Mn3Nb2Fe3O16,0.2774000000000001
Li4Mn3Nb2Ni3O16,0.0
Li4Mn3Nb2Sn3O16,0.7199999999999998
Li4Mn3Nb2V3O16,0.0
Li4Mn3Nb2V3O16,0.24990000000000023
Li4Mn3Nb3(FeO8)2,0.1748000000000003
Li4Mn3Nb3(FeO8)2,0.3522999999999996
Li4Mn3Nb3(SbO8)2,0.6898
Li4Mn3Nb3(SbO8)2,0.0
Li4Mn3Nb3(SnO8)2,0.0
Li4Mn3Nb3(TeO8)2,0.45610000000000017
Li4Mn3Nb5O16,0.0
Li4Mn3NbCr2(PO4)6,0.0
Li4Mn3NbFe2(PO4)6,0.5375999999999999
Li4Mn3NbO8,0.0
Li4Mn3NbO8,0.7864999999999998
Li4Mn3NbO8,0.9673999999999996
Li4Mn3NbO8,0.41100000000000003
Li4Mn3NbO8,0.4537
Li4Mn3NbO8,0.8105000000000002
Li4Mn3NbO8,0.6346000000000003
Li4Mn3NbO8,0.6909999999999998
Li4Mn3NbO8,0.019000000000000128
Li4Mn3NbV2(PO4)6,3.524
Li4Mn3Ni(PO4)4,2.7518
Li4Mn3Ni2Sb3O16,0.0
Li4Mn3Ni2Sn3O16,0.6145
Li4Mn3Ni3(PO4)6,0.2741
Li4Mn3Ni3(PO4)6,0.3022999999999998
Li4Mn3Ni3(SbO8)2,0.0
Li4Mn3Ni3(SnO8)2,0.005700000000000038
Li4Mn3Ni3(TeO8)2,0.09860000000000024
Li4Mn3Ni3(WO8)2,0.30969999999999986
Li4Mn3NiO8,0.0
Li4Mn3O5F3,0.7021999999999999
Li4Mn3O6F,0.0
Li4Mn3O7,0.8771999999999998
Li4Mn3O7,1.0555999999999996
Li4Mn3O7,0.8759999999999999
Li4Mn3O7,0.7262
Li4Mn3O7,0.613
Li4Mn3O7,0.9327999999999999
Li4Mn3O7,0.8866999999999998
Li4Mn3O7,0.9137
Li4Mn3O7,0.8471000000000002
Li4Mn3O7,0.9933000000000001
Li4Mn3O7,0.8592
Li4Mn3O7,1.1980999999999997
Li4Mn3O7,0.0005999999999999339
Li4Mn3O7,0.6667000000000001
Li4Mn3O7,0.4890000000000003
Li4Mn3O7,0.7222
Li4Mn3O7,0.5731999999999999
Li4Mn3O7,0.4868999999999999
Li4Mn3O7,0.5547999999999997
Li4Mn3O7,0.6903000000000001
Li4Mn3O7,0.9809000000000001
Li4Mn3O7,0.7911999999999999
Li4Mn3O7,1.1959
Li4Mn3O7,1.1623999999999999
Li4Mn3O7,1.065
Li4Mn3O7,1.1789
Li4Mn3O7,0.8574999999999999
Li4Mn3O7,0.8977000000000004
Li4Mn3O7,0.0
Li4Mn3O8,0.7609999999999999
Li4Mn3O8,1.6716
Li4Mn3OF11,1.4098000000000002
Li4Mn3OF11,0.5164000000000001
Li4Mn3OF11,1.0383
Li4Mn3OF11,1.0928
Li4Mn3OF8,2.1687000000000003
Li4Mn3OF8,1.749
Li4Mn3OF8,2.5141
Li4Mn3P3O12F,3.5760000000000005
Li4Mn3P4(HO8)2,1.8571999999999997
Li4Mn3Sb(PO4)4,0.27280000000000015
Li4Mn3SbO8,0.7800000000000002
Li4Mn3SbO8,0.11139999999999972
Li4Mn3SbO8,0.6490999999999998
Li4Mn3SbO8,0.9177999999999997
Li4Mn3SbO8,0.0
Li4Mn3Sn(PO4)4,3.2141
Li4Mn3Sn2Sb3O16,0.0
Li4Mn3Sn3(SbO8)2,0.0
Li4Mn3Sn3(TeO8)2,0.24270000000000014
Li4Mn3Sn5O16,0.0048000000000003595
Li4Mn3SnO8,0.0
Li4Mn3TeO12,0.0
Li4Mn3V(PO4)4,0.8172999999999995
Li4Mn3V2Co3O16,0.36030000000000006
Li4Mn3V2Cr(PO4)6,0.5556000000000001
Li4Mn3V2Cr3O16,0.22239999999999993
Li4Mn3V2Cr3O16,0.6577999999999999
Li4Mn3V2Cu3O16,0.0
Li4Mn3V2Fe3O16,0.5680000000000001
Li4Mn3V2Ni3O16,0.3125
Li4Mn3V2Sb3O16,0.0
Li4Mn3V2Sb3O16,0.46609999999999996
Li4Mn3V3(CuO8)2,0.0
Li4Mn3V3(FeO8)2,0.9368000000000003
Li4Mn3V3(NiO8)2,0.6217999999999999
Li4Mn3V3(SbO8)2,0.35230000000000006
Li4Mn3V3(SnO8)2,0.5051000000000001
Li4Mn3V3(TeO8)2,0.4295
Li4Mn3V3(TeO8)2,0.0
Li4Mn3V3(WO8)2,0.8083999999999998
Li4Mn3V3Cr2O16,0.33550000000000013
Li4Mn3V5O16,0.5089999999999999
Li4Mn3VO8,0.0
Li4Mn3WO8,0.7176
Li4Mn5(CuO6)2,0.0
Li4Mn5(Fe2O9)2,0.5236000000000001
Li4Mn5(Fe2O9)2,0.43710000000000004
Li4Mn5(Fe2O9)2,0.25859999999999994
Li4Mn5(FeO6)2,0.5706000000000002
Li4Mn5(NiO6)2,0.31689999999999996
Li4Mn5(P3O11)2,3.1011999999999995
Li4Mn5Co(PO4)6,0.4950000000000001
Li4Mn5Co3O16,0.0
Li4Mn5CoO12,0.2584000000000004
Li4Mn5CoO12,0.12080000000000002
Li4Mn5Cr(PO4)6,0.3167
Li4Mn5Cr2O12,0.25500000000000034
Li4Mn5Cr3O16,0.0
Li4Mn5Cu(PO4)6,0.24189999999999978
Li4Mn5Cu3O16,0.0
Li4Mn5CuO12,0.0
Li4Mn5Fe(PO4)6,0.32109999999999994
Li4Mn5Fe3O16,0.0
Li4Mn5FeO12,0.0
Li4Mn5Nb3O16,0.0
Li4Mn5NbO12,0.0
Li4Mn5Ni(PO4)6,0.0
Li4Mn5Ni3O16,0.0
Li4Mn5NiO12,0.01540000000000008
Li4Mn5O10,0.48229999999999995
Li4Mn5O10,0.6966000000000001
Li4Mn5O12,0.7752000000000001
Li4Mn5O9F,0.7606999999999999
Li4Mn5O9F,0.6182000000000003
Li4Mn5P6WO24,2.4972
Li4Mn5Sb(PO4)6,0.016899999999999693
Li4Mn5Sb3O16,0.0