formula,band_gap
K4Re2Cl10O,0.13369999999999993
K4Re2HCl10O,0.17689999999999984
K4Re6TeC6S7N6,2.1411
K4Ru(NO2)6,2.3638
K4Ru2Cl10O,0.3968
K4Sb2N3O9F7,2.9897
K4Sb2O3,1.2442
K4Sb2O5,0.4352999999999998
K4Sb2O5,2.3454999999999995
K4Si23,0.0
K4SiO4,2.9391
K4Sn(TeSe)2,1.5606
K4Sn20Hg3,0.0
K4Sn21Hg2,0.19419999999999948
K4Sn23,0.0
K4Sn3Se8,1.4545000000000001
K4Sn9,1.1220999999999997
K4SnO3,2.1095
K4SnO4,2.3423
K4SnSb2F14,4.0907
K4SnSe4,1.7396
K4Sr(SiO3)3,4.1688
K4Sr(SiO3)3,4.1609
K4Sr2SnAs4,0.5578000000000001
K4Sr2SnAs4,0.5377000000000003
K4SrU3O12,2.0683
K4Ta2S11,1.7096000000000002
K4Ta2S11,1.6604999999999999
K4Ta3NbO12,1.9359999999999997
K4Tc2H6C8O21,0.1943
K4Te8O23,1.2989000000000002
K4TeP4(HO2)10,3.584
K4Th(MoO4)4,4.0045
K4Th(S2O9)2,0.0
K4Ti2H2O5F8,3.3668
K4Ti2PO4F9,3.0586
K4Ti3Co(PO4)6,1.2036000000000002
K4Ti3Mn(PO4)6,2.2113000000000005
K4Ti3Ni(PO4)6,2.2488
K4Ti3S14,1.2064
K4Ti4I12O,0.0
K4TiO4,3.1646
K4TiO4,3.1456
K4TiO4,3.0164
K4TiSn3(PO5)4,3.3035
K4U(PO5)2,1.7849
K4U3(AsO8)2,1.8696000000000002
K4U5B2O21,0.14669999999999994
K4U5Te2O21,1.7690000000000001
K4UC3O11,2.0892
K4UO5,2.1712
K4US3O14,1.8491
K4V2O7,3.4405
K4V2S4O19,2.0392
K4V3S5O23,2.8128
K4V4As6H12O31,2.0934
K4V5CdClO15,2.1279
K4V5CuClO15,0.2673
K4VP2S9,1.1214000000000002
K4W2Cl10O,1.184
K4WO5,3.2323
K4WS3O14,4.0388
K4Zn(WO4)3,4.2269
K4Zn2Sn21,0.42079999999999984
K4ZnAs2,0.725
K4ZnBi2,0.32909999999999995
K4ZnO3,1.6945999999999999
K4ZnP2,0.9455
K4Zr3Mn(PO4)6,2.8643
K4Zr3Te17,0.8564000000000003
K4Zr5O12,3.1900000000000004
K4Zr6CBr18,1.1749999999999998
K4Zr6FeBr18,1.3841
K4ZrO4,2.9118
K5(AsPb)3,0.8377999999999999
K5(CN2)3,0.0
K5(DyI4)3,0.0
K5(TmI4)3,0.0
K57Se34,0.0
K5Ag(S2O3)3,3.1632
K5Ag2(AsSe3)3,0.9497
K5AlCr4(MoO4)10,2.7593
K5As2Au,0.3393999999999999
K5As3O10,3.057
K5As4,0.0
K5Au(IO)2,1.8820000000000001
K5B(SO4)4,5.2517
K5B19O31,5.3619
K5BaNbAs4,1.1094
K5BaTaP4,1.2675999999999998
K5Bi4,0.0
K5Br4Cl,4.3857
K5BrCl4,4.5336
K5Ce2H2S6O25,0.5116
K5Cr10F31,0.0
K5CuAs2,0.25249999999999995
K5CuCO5,1.0851000000000002
K5CuSb2,0.7465000000000002
K5Eu2Si4O13F,0.0
K5Fe2Te5,0.1865000000000001
K5FeO4,1.7025000000000001
K5GaSe4,2.4448999999999996
K5H(CN2)2,3.8504
K5H3(S2O9)2,4.358499999999999
K5H3S4N2O15,3.9074
K5H3S5O14,3.6559
K5Hf3OF17,0.8072999999999999
K5HfIn(MoO4)6,3.5543
K5HfIn(MoO4)6,3.7106
K5Hg7,0.0
K5In(MoO4)4,3.4823
K5In(MoO4)4,3.4447
K5In3(SiO3)7,3.8853
K5In3F14,4.6571
K5In3P6Se19,1.0646000000000002
K5In4(Ge3As7)2,0.0
K5InO4,2.2674
K5InPb8,0.0
K5La4Si4O16F,4.6591000000000005
K5Li2EuF10,0.13260000000000005
K5Li2NdF10,6.4521999999999995
K5Li2PrF10,6.4766
K5Li3Ti8(AsO5)8,3.0181
K5LiGe2O7,2.9956
K5LuHf(MoO4)6,3.8503
K5Mn2B2P5O21,0.5683
K5Mn3O6,0.8132999999999999
K5Mo4O14F,3.6586999999999996
K5Mo8As(H3O16)2,3.4022
K5NO4,0.0
K5Na(Ti2Se9)3,0.8225000000000002
K5Na3(MoO4)4,4.3782
K5Na3Cu8(S2O9)4,0.00019999999999997797
K5Na3Nb4(WO6)4,0.0
K5Na3Nb5(WO8)3,0.0
K5Na3Nb6(WO12)2,0.0
K5Na3Nb7WO24,0.0
K5Na3Nb8O24,1.4558
K5Na3Ta2Nb6O20,0.0
K5Na3Ta2Nb6O24,1.4727
K5Na3Ta3Nb5O20,0.0
K5Na3Ta3Nb5O24,1.4641000000000002
K5Na3Ta4Nb4O20,0.0
K5Na3Ta4Nb4O24,1.6070999999999998
K5Na3Ta5Nb3O24,1.6022
K5Na3Ta6Nb2O20,0.0
K5Na3Ta6Nb2O24,1.7456
K5Na3Ta7NbO20,0.0
K5Na3Ta7NbO24,1.9600000000000002
K5Na3Ta8O24,2.1487999999999996
K5Na3TaNb7O20,0.0
K5Na3TaNb7O24,1.4735999999999998
K5NaCe2(SO4)6,0.07719999999999994
K5NaFe2(CO2)12,0.013500000000000012
K5NaFe2(CO2)12,3.1205
K5NaNi5(P2O7)4,3.9214
K5NaP3(HO4)3,4.6396999999999995
K5NaS4(ClO6)2,5.1579
K5Nb(CN)8,1.7548000000000001
K5Nb16(O5F2)4,0.0
K5Nb3O3F14,0.00019999999999997797
K5Nb4O12F,3.4353
K5P2Au,0.48150000000000004
K5Pb24,0.0
K5Pr4Si4O16F,5.0432999999999995
K5RbZn4Sn5S17,1.612
K5Sb4,0.0
K5Sc3F14,6.2149
K5Se3,0.42790000000000006
K5Sm(MoO4)4,3.8758
K5SnAs3,0.9611000000000001
K5SnBi3,0.0032999999999998586
K5SnSb3,0.40810000000000013
K5Ta(TlAs2)2,1.5206
K5TbH8(CO2)8,4.5523
K5Te2Mo6H18NO36,0.1995999999999999
K5Te3,0.17159999999999997
K5Th(PS4)3,1.9759999999999998
K5ThF9,5.9691
K5Ti3F14,0.0
K5Tl3O,0.13490000000000002
K5TlO4,1.4847
K5U(PS4)3,0.3198000000000003
K5U2O4F9,2.6589
K5U2O4F9,2.3563
K5U4VS4O33,0.3546
K5V3F14,0.0
K5V3O10,3.0582000000000003
K5V9H20PtO37,1.9297
K5Y2Si4O13F,4.347499999999999
K5YH8(CO2)8,4.4154
K5YO4,2.1115
K5YO4,2.2965999999999998
K5Zn4Sn5H4S17N,1.5769
K6Al11Si13Ag5O48,1.7038
K6Al11Si13Ag5O48,1.5983
K6Al32O51,2.789300000000001
K6Al4Si6BH4ClO24,4.5193
K6Ba2CaU6O24,2.0426
K6Ba2CaU6O24,1.9524000000000004
K6Ba3Ta12(Si2O13)4,2.9397
K6Be4C6O19,4.8702000000000005
K6Bi6O19,0.0
K6BiH3(Cl2F)4,4.1881
K6BiH3(Cl2F)4,4.1693
K6Cd4Sn3Se13,1.4058
K6CdO4,1.5819
K6CdPb8,0.0
K6CdTe4,1.6614
K6Co2O5,0.8292999999999999
K6Co2O7,0.8768
K6CoMo5O19,2.805
K6CoS4,0.4376000000000002
K6CoSe4,0.42710000000000004
K6Cu(SiO4)2,0.5214999999999999
K6Fe24S26Cl,0.0
K6Ge2O7,3.0827
K6H6S6N2O23,5.0752
K6HgS4,1.7161
K6HgSe4,1.3845999999999998
K6In3H12(N8O27)2,0.05359999999999998
K6InAs3,0.4983000000000001
K6InP3,0.7701
K6InP3,0.7462000000000002
K6InTe4Cl,1.9503000000000001
K6LiFe24S26Cl,0.0
K6Mg(BiO4)2,1.0287
K6Mg(BiO4)2,1.2262999999999997
K6Mg(BiO4)2,1.474
K6Mg(FeO3)2,1.1503
K6Mg(SbO4)2,2.1648
K6Mg(SbO4)2,2.3223
K6Mg(SbS4)2,1.4390999999999998
K6Mg(SbS4)2,0.11020000000000008
K6Mg(SbS4)2,1.0302
K6MgCr2O8,0.8815
K6MgO4,1.6783000000000001
K6MgV2(SO3)2,1.0608000000000002
K6MgV2(SO3)2,1.0975000000000001
K6MgV2(SO3)2,1.4630000000000003
K6MnS4,1.2969
K6MnSe4,1.232
K6MnTe4,1.4227000000000003
K6Mo10O33,2.9920999999999998
K6Mo6C5Se8N5,0.1655000000000002
K6Mo7H18O35,2.373
K6Na14MgTl18,0.0253000000000001
K6Na14Tl18Cd,0.0019999999999997797
K6Na14Tl18Hg,0.0
K6Na14Tl18Zn,0.0
K6Na15Tl18H,0.0049000000000001265
K6Na2MnH24(WO6)6,2.1123000000000003
K6Na2V2S7O30,1.56
K6Na3AlSb4,0.7282999999999997
K6Na3GaSb4,0.6974
K6Na3Ti2Al2Si8Cl3O26,3.2034
K6Na4Tl13,0.0
K6NaAu2IO8,1.8845999999999998
K6Nb11O30,0.0
K6Nb4S25,1.3047
K6NbAs3O,1.0121000000000002
K6NbTlAs4,1.1811
K6Pb2O5,2.1249000000000002
K6Pd3(BrCl2)4,1.2865
K6PdSe20,0.9558000000000001
K6ReN4,0.0
K6Sb2H18S8O9,2.2502999999999997
K6Se2O9,1.6318000000000001
K6Si2O7,3.5108
K6Si2S6O,3.1497
K6Sn25,0.6545000000000001
K6Sn2S7,2.0416
K6Sn2Se7,1.6683999999999999
K6Sn3As5,0.6389999999999998
K6Sr2Ni5(P2O7)5,3.8431000000000006
K6Ta11O30,0.0
K6Ta3O8F13,0.0
K6Te2P6(H4O11)3,0.45600000000000007
K6Te3(H8O7)4,3.0658
K6Ti2O7,3.4474
K6Ti2O7,3.6248
K6Ti2S6O,2.4834
K6Tl17,0.025799999999999823
K6Tl2Sb3,0.2530999999999999
K6U2(Cu4S5)3,0.5553999999999997
K6U2Mo4O21,2.1736
K6U4O15,1.3949000000000003
K6U5As2O23,1.8012
K6U5V2O23,1.7214000000000003
K6V6P6O31,0.039200000000000124
K6WN4,0.8245
K6YO4,0.0
K6Zn3Cl10,0.11160000000000014
K6Zn4Sn5S17,1.6338
K6ZnBi5,0.0
K6ZnS4,1.9713999999999998
K6ZnSe4,1.6945
K6Zr3H8(OF)12,3.3651
K7(Bi3O8)3,0.0
K7(FeS2)5,0.0
K7(FeTe2)4,0.04709999999999992
K7(FeTe2)4,0.06009999999999982
K7(Mo9S11)4,0.0
K7(Si2Te5)4,0.0
K7Be12(PO4)12,0.0
K7Bi2P6(W2O17)2,0.2834
K7Fe5O16,0.04469999999999996
K7Hg31,0.0
K7LiSi8,1.6927
K7Mo12H29Pt2O59,0.07029999999999997
K7Mo12H31Pt2O59,2.5534
K7Na17(ZnSn2)4,0.010999999999999899
K7NaGe8,1.3336
K7Nb(SO4)6,2.8575
K7Nb14(P3O20)3,0.0
K7NbAs4,1.1294
K7P6H2NO22,3.6047000000000002
K7Rb5(Fe2O5)2,1.3489
K7RbTi8(PO5)8,3.0963000000000003
K7Ta(SO4)6,3.6873
K7TaAs4,1.0407000000000002
K7Th6F31,5.8527
K7Ti8(PO4)12,0.0
K8Al2O7,2.2214
K8AsO3,0.0
K8CaTe6,0.6053999999999999
K8Cu9S8(ClO18)2,0.046699999999999964
K8Gd3Si12ClO34,0.08509999999999995
K8Hf(MoO4)6,3.7
K8In11,0.0
K8La(PS4)4,0.030500000000000194
K8La(PSe4)4,0.08679999999999999
K8Li13(FeO4)4,1.7423999999999997
K8Li3(FeO4)4,0.058899999999999994
K8Li31Al8O32,0.0
K8Li3Cr4O16,0.0
K8Li3Mn4O16,0.0286
K8Li9(FeO4)4,0.0
K8Li9Cr4O16,0.7693000000000003
K8Li9Mn4O16,0.43579999999999997
K8Mg(SiO3)8,0.027200000000000002
K8Mg(SiO3)8,0.010299999999999976
K8Mg(SiO3)8,0.0
K8MgCo2(Mo4O15)2,1.8373000000000002
K8MgCo2(Mo4O15)2,0.5320999999999998
K8MgCo2(Mo4O15)2,0.01089999999999991
K8MgCo2(Mo4O15)2,0.7067000000000001
K8MgCo2(Mo4O15)2,0.12159999999999993
K8MgCo2(Mo4O15)2,0.4990999999999999
K8MgCo2(Mo4O15)2,1.1294
K8MgCo2(Mo4O15)2,1.3996
K8MgMn4O16,0.011299999999999998
K8MgMn4O16,0.0683
K8MgMn4O16,0.2867
K8MgMn4O16,0.5973999999999999
K8MgTi2O8,0.35309999999999997
K8NbAs5Pb,1.1994
K8NbSnAs5,1.2448000000000001
K8Nd3(Si4O11)3,0.9364999999999999
K8Rb2Hg15(GeS4)10,1.4300000000000002
K8Sb2Te,0.5287999999999999
K8SnSb4,0.31899999999999995
K8SrTe6,0.6937
K8TeP8(H5O16)2,3.7884
K8Th(MoO4)6,3.4234
K8Ti5P2(O4F11)2,3.1144
K8Tl10Zn,0.10639999999999983
K8Tl11,0.0
K8UCr4(NO12)2,2.102
K8V2(S2O9)3,3.2311
K8Zr(MoO4)6,3.7863
K8Zr3Si12SnO40,0.8252000000000002
K8Zr6BBr20,0.055299999999999905
K8Zr6BeBr20,0.9222000000000001
K8Zr6MnBr20,0.14250000000000007
K9(FeO4)2,0.008200000000000207
K9(NbAs3)2,0.607
K9(WO3)20,0.0
K9Bi(PS4)4,2.0563000000000002
K9Bi5O13,0.8517999999999999
K9Ce(PS4)4,0.34209999999999985
K9Co2S7,0.28480000000000005
K9Eu3Si12(O16F)2,0.0
K9Fe2O7,2.0603000000000002
K9Fe2S7,0.5147999999999999
K9Fe2Se7,0.3782000000000001
K9FeS7,0.08410000000000006
K9Gd3Si12(O16F)2,3.7656
K9In9GeSb22,0.47219999999999995
K9InSe7,1.8024
K9Li3I2O13,0.7629999999999999
K9Li3Nd3(BO3)7,3.7614
K9NaTl13,0.0
K9Nd(PS4)4,2.7271
K9Ni2O7,0.5044
K9Sm3Si12(O16F)2,4.5766
K9Ta10O30,0.0
K9Ta2VS12,1.8268
K9Y3Si12(O16F)2,4.995
KAcTe2,0.8620999999999999
KAg(CN)2,3.0962
KAg(NO3)2,2.4208
KAg(PO3)2,2.9041
KAg2,0.0
KAg2AsO4,0.2116
KAg2PS4,1.2441
KAg2SbS3,1.6882999999999995
KAg2SbS4,0.5695999999999999
KAg3As2S5,1.6896999999999998
KAg3S2,1.3365999999999998
KAg3Se2,0.0041999999999999815
KAg3Te2,0.25360000000000005
KAg5S3,0.6972000000000003
KAgBr3,0.0
KAgC2(SN)2,2.9337
KAgCO3,1.5675
KAgCO3,2.2257
KAgCO3,1.5687000000000002
KAgCl3,0.0
KAgF3,0.0
KAgF4,1.7377999999999998
KAgO,1.4858
KAgO2,0.6151
KAgO2,0.9659
KAgO2,1.1904
KAgPSe3,1.3696000000000002
KAgSe,0.48219999999999996
KAgSnSe3,1.2891
KAgTeS3,1.6838000000000002
KAgTeS3,1.8269
KAl(BH4)4,6.646599999999999
KAl(MoO4)2,3.8895
KAl(PO3)4,5.1796999999999995
KAl(SO4)2,5.5112000000000005
KAl(SO4)2,5.540900000000001
KAl(SiO3)2,4.9148
KAl(SiO3)2,4.7653
KAl(SiO3)3,0.0
KAl11O17,4.6859
KAl11O17,4.514900000000001
KAl11O17,4.587400000000001
KAl11O17,4.6159
KAl11O17,4.674899999999999
KAl2(SiO3)4,1.0188000000000001
KAl2Br7,4.1578
KAl2NiP3(H2O7)2,4.3218
KAl2NiP3O14,0.02399999999999991
KAl2P2H4O11,0.5065000000000001
KAl2P2H4O11,0.7236000000000001
KAl2P2H5O11,5.3956
KAl2P2H5O11,5.087899999999999
KAl2P2H8O12F,4.9791
KAl2P2H9O13,4.8459
KAl2Si4(HO6)2,0.0
KAl2Si4O11,0.0
KAl3(SiO4)3,2.9985
KAl3(SiO4)3,3.0008999999999997
KAl3(SiO4)3,0.6673000000000002
KAl3Fe2Si2(HO6)2,3.5502
KAl3Si3(HO6)2,4.8237000000000005
KAl3Si3(HO6)2,4.5629
KAl4Fe3(HO6)2,1.3491000000000002
KAl9O14,4.1426
KAlAs2O7,3.0427999999999997
KAlBP2O9,0.20610000000000006
KAlBr4,4.2143999999999995
KAlCl2O,4.302
KAlCl4,5.286300000000001
KAlCo(PO4)2,1.1518000000000002
KAlCo3Si3(HO6)2,2.6524
KAlCuF6,0.08090000000000003
KAlF4,6.957800000000001
KAlF4,6.9377
KAlF4,6.7928999999999995
KAlF4,6.9087
KAlGeO4,4.0428
KAlH2CO5,5.0845
KAlH3,0.0
KAlH4,5.0652
KAlH4,4.8048
KAlH6(OF3)2,6.9765999999999995
KAlNiF6,5.4566
KAlO2,2.9467
KAlO2,3.7537999999999996
KAlO2,3.9993999999999996
KAlP2H4O9,5.2367
KAlP2O7,5.2966999999999995
KAlP4(H2O7)2,5.662599999999999
KAlPO5,0.0
KAlSb4,0.24520000000000053
KAlSe2,2.4189
KAlSi2,0.041400000000000325
KAlSi3Ni3(HO6)2,3.2453
KAlSi3O8,5.4583
KAlSi3O8,4.7471000000000005
KAlSi3O8,4.9275
KAlSi3O8,4.924300000000001
KAlSiO4,4.5177
KAlSiO4,4.3164
KAlSiO4,4.6996
KAlSiO4,4.5021
KAlSiO4,4.5009999999999994
KAlTe2,1.7037
KAlTe2,1.9596000000000005
KAs,0.6695
KAs,0.0
KAs(HO2)2,4.3888
KAs(HO2)2,4.134399999999999
KAs2F7,4.7762
KAs2HO6,2.7514000000000003
KAs3(PbO3)4,3.4726
KAs4(HO4)3,2.7809
KAs4BrO6,2.7386999999999997
KAs4ClO6,3.0749000000000004
KAs4IO6,2.3379000000000003
KAsF6,4.9494
KAsF6,4.8371
KAsO2,3.8449
KAsO3,3.3848000000000003
KAsO3,3.1487999999999996
KAsO3,3.0119000000000002
KAsO3,3.1596
KAsOF4,3.7394
KAsOF5,0.5423
KAsOF5,1.1259000000000001
KAsSe2,1.5958999999999999
KAsW2O9,2.3938
KAu(CN)2,2.9528
KAu(IO3)4,2.1171999999999995
KAu(IO3)4,2.1181
KAu(NO3)4,3.3381
KAu(SO4)2,1.46
KAu2,0.0
KAu5,0.0
KAuBr3,0.0
KAuBr4,0.8099999999999999
KAuC2(SN)2,2.1729
KAuCl3,0.0
KAuCl4,1.4257
KAuCl4,1.3913
KAuF3,0.0
KAuF4,2.3647
KAuF6,2.1117
KAuI3,0.6459
KAuI4,0.3003
KAuO2,1.0922999999999998
KAuO2,1.4264
KAuS,2.1003000000000003
KAuS5,1.7779
KAuSe,1.8159999999999998
KAuSe2,0.8850000000000002
KAuSe5,1.0431
KB(CO2)4,3.2605
KB(S2O7)2,5.5005
KB(SO4)2,6.2377
KB11H13C2NO,4.8833
KB2SbO6,2.9208000000000007
KB3(HO3)2,4.8267
KB3O5,5.7643
KB3O5,5.2382
KB3SeO7,4.5432
KB5(H2O3)4,5.2178
KB5(H2O3)4,5.635
KB5(H2O5)2,6.1032
KB5H2O9,5.7166999999999994
KB5O8,6.014900000000001
KB5O8,5.413600000000001
KB6,0.0
KB6F6,2.6471
KB6H2OF6,2.6705
KB6P(H2O7)2,5.8809000000000005
KBCNF3,6.719200000000001
KBF4,7.9399
KBF4,7.316699999999999
KBH4,6.2165
KBH4,6.0959
KBH5N,4.2976
KBO2,4.1255
KBOF2,6.059799999999999
KBP2PbO8,4.5984
KBS2,2.7753
KBS4(ClO3)4,4.3746
KBa(AgTe2)2,0.0
KBa(Fe2Se3)2,0.0
KBa(FeAs)4,0.0
KBa2(BiO3)3,0.0
KBa2(FeAs)6,0.0
KBa2(PO3)5,5.4035
KBa2As5,0.25829999999999975
KBa2Bi2O7,0.0
KBa2Cd2Sb3,0.2084999999999999
KBa2I5,3.7157999999999998
KBa2IO6,2.7790000000000004
KBa2Nb3O9,0.0
KBa2Ni2F9,0.0479999999999996
KBa2V2ClO7,3.2799
KBa2Zn3B9O19,3.6287000000000003
KBa3,0.0
KBa3(BiO3)4,0.0
KBa3(FeAs)8,0.0
KBa3Ca4V7Cu3O28,0.0
KBa3Ga5(Se5Cl)2,2.2138999999999998
KBa3Y2(Co3O8)2,0.0
KBa4(FeAs)10,0.0
KBa4Bi3O,0.7393000000000001
KBa4Sb3O,1.0220000000000002
KBa4Ti5O14F,1.1399
KBa6Zn4(GaO3)7,2.4644
KBa7Al15Si17O64,4.152299999999999
KBaAl3Si5O16,4.7151
KBaAsO4,3.8409
KBaAsSe3,1.6299
KBaB(PO4)2,5.3264
KBaB5O9,4.8693
KBaBiTeO6,1.5862999999999996
KBaBiWO6,2.3526
KBaBiWO6,2.4187
KBaCeBiO6,1.5341
KBaCeBiO6,2.1836
KBaCeMnO6,0.0
KBaCeWO6,0.5378000000000003
KBaCeWO6,0.0
KBaCr2(PO4)3,3.2965
KBaCr2(PO4)3,2.7328
KBaEuWO6,0.0
KBaFeO3,0.5118
KBaGd(MoO4)3,2.9552
KBaGdWO6,2.8167000000000004
KBaGdWO6,2.7759000000000005
KBaIn2(PO4)3,3.4534999999999996
KBaLaMnO6,0.0
KBaLaSeO6,1.9313999999999996
KBaLaSeO6,1.9080999999999997
KBaLaWO6,2.9056
KBaLaWO6,2.9377999999999997
KBaLiZnF6,5.5617
KBaLiZnF6,4.4943
KBaMg14,0.0
KBaMnO4,1.8093000000000001
KBaNa2Ti3Fe(Si2O9)2,2.6506999999999996
KBaNbS4,2.0731
KBaNdWO6,2.7892
KBaNdWO6,2.8191000000000006
KBaP3O10,0.7098
KBaPO4,4.9502999999999995
KBaPS4,2.3898
KBaPSe4,1.2588000000000001
KBaPrBiO6,0.0
KBaPrWO6,2.8049
KBaPrWO6,2.8123000000000005
KBaSbSe3,1.7736
KBaSiHO4,3.9285000000000005
KBaSmMnO6,0.0
KBaTbBiO6,0.0
KBaV2CuClO7,0.28390000000000004
KBaV3Cd2O11,3.0660000000000003
KBaVO4,3.6403000000000003
KBaY(BO2)6,5.3259
KBaY(BO3)2,3.9314
KBaYSi2O7,4.664
KBe(H2N)3,2.8280000000000003
KBe(PO3)3,5.8102
KBe2B3O7,4.8329
KBe2B3O7,4.949
KBe2B3O7,5.5029
KBe2BO3F2,5.9979
KBe2BO3F2,6.0524000000000004
KBe3ZnF9,5.4514
KBeF3,7.061299999999999
KBeH3,3.0876
KBePO4,5.2634
KBi,0.4058999999999999
KBi(PO3)4,4.8281
KBi(PS3)2,2.2272000000000003
KBi(PSe3)2,1.7637
KBi(PSe3)2,1.3545
KBi(WO4)2,2.4244000000000003
KBi2,0.0
KBi2F7,3.581
KBi2F7,4.6761
KBi3,0.0
KBi3F10,4.4569
KBi3S5,1.4226999999999999
KBi6BrO9,2.3298
KBi6ClO9,2.3531000000000004
KBi6IO9,2.2881000000000005
KBiF4,3.2321
KBiF4,4.1944
KBiF6,2.6310000000000002
KBiF6,2.7061
KBiF6,2.4402
KBiH10C4O13,3.0577
KBiN(ClO)3,2.8674999999999997
KBiO2,1.8514
KBiO3,0.49140000000000006
KBiO3,0.18619999999999992
KBiO3,0.8688
KBiO3,0.0
KBiP2S7,2.1971000000000003
KBiPCO7,0.0
KBiPb,0.0
KBiS(ClO2)2,4.179
KBiS2,1.4158000000000004
KBiSe2,0.0
KBiSe2,0.8130999999999999
KBr,4.3224
KBr,3.8761
KBrF4,3.2009
KBrO3,3.8569
KBrO4,3.1089
KC2N3,3.7368
KC2N3,4.6487
KC2N3,4.502599999999999
KC2N3,4.3294999999999995
KC8,0.0
KCN,5.0567
KCN,5.1350999999999996
KCN,5.021599999999999
KCN,5.026
KCNO,4.6895999999999995
KCO2,2.7324
KCO3,0.09640000000000004
KCO3,0.8755999999999999
KCOF3,6.3741
KCS(OF)3,5.2646
KCSN,4.2285
KCSN,4.0327
KCSN,4.1109
KCSN,4.2439
KCSeN,3.6215
KCa(H2N)3,2.1993
KCa(PO3)3,5.0471
KCa10(PO4)7,5.241
KCa10V7O28,3.8017
KCa12Si4S2O26F,4.2813
KCa2Be2Al(Si2O5)6,4.869
KCa2Cd2Sb3,0.06709999999999994
KCa2Mg2V3O12,3.3434
KCa2Nb3O10,1.9665
KCa2Nb3O10,1.9567999999999999
KCa2P4H11O18,5.279100000000001
KCa2P4H9O17,5.0527999999999995
KCa2Ta3O10,2.1790000000000003
KCa3,0.0
KCa3Mg3Al(SiO3)8,4.9526
KCa4(BO3)3,4.5893
KCa4B22H18ClO46,5.5100999999999996
KCa4Si8H16O28F,4.8743
KCa4Si8H16O29,0.9972000000000001
KCa5Mg5Al(SiO3)12,4.8377
KCa7Si3(O4F)3,4.7135
KCa9Co(PO4)7,4.274699999999999
KCa9Mg(PO4)7,5.2794
KCa9Mn(PO4)7,4.5333000000000006
KCaAl2F9,7.1437
KCaAs(H4O3)4,4.2389
KCaBi,0.8270000000000002
KCaBiWO6,2.1352999999999995
KCaBr3,4.6027
KCaBr3,4.4047
KCaBr3,3.6852
KCaCO3F,4.3552
KCaCeBiO6,1.7974
KCaCeBiO6,1.6069999999999998
KCaCeFeO6,0.0
KCaCeNbO6,2.1092999999999997
KCaCeNbO6,2.0677
KCaCeSbO6,1.9872999999999994
KCaCl3,4.7635
KCaCl3,5.5615
KCaCl3,5.616
KCaCl3,4.7457
KCaCr2F9,3.2258
KCaCrH10C6O17,3.3606
KCaDySeO6,2.0625000000000004
KCaDyWO6,2.8505000000000003
KCaEr2CuS5,1.3723000000000005
KCaF3,6.1392
KCaF3,6.6502
KCaF3,6.8058
KCaFe2F9,3.3095
KCaFeBiO6,0.0
KCaGdFeO6,0.0
KCaGdWO6,2.8078000000000003
KCaH3,3.3257000000000003
KCaHfBiO6,1.2894999999999999
KCaHfSbO6,3.3114
KCaI3,3.6023999999999994
KCaInWO6,3.432
KCaLaFeO6,0.0
KCaLaSeO6,2.2661
KCaLaWO6,2.2667
KCaLaWO6,2.9185999999999996
KCaLaWO6,2.8899000000000004
KCaMg14,0.0
KCaNb2O6F,2.7607
KCaNbBiO6,0.0
KCaNbWO6,0.0
KCaNd(PO4)2,4.7393
KTb2Cu(MoO4)4,0.6042999999999998
KTb2CuS4,0.9798999999999998
KTb2F7,6.8138
KTb3F10,6.9502
KTb3F12,0.0
KTbCr2O8,2.7192
KTbEuWO6,0.4137000000000004
KTbF5,0.0
KTbGeS4,2.2297
KTbH2C2SO9,3.0575
KTbNdSbO6,3.1416
KTbP2H4O9,4.3835
KTbPrNbO6,2.3998999999999997
KTbPrSbO6,3.1998
KTbS2,2.3136
KTbS2O9,1.2252999999999998
KTbSnWO6,2.084
KTbSnWO6,2.4964
KTcCl3,1.4596
KTcO3,0.0
KTcO4,3.1886
KTe,0.21319999999999983
KTe,0.6708999999999998
KTe2F9,4.5077
KTe3,0.0
KTe3O6F,3.0664
KTeAu,0.0
KTeF5,5.2046
KTeHOF4,5.0324
KTeO2F,3.7203
KTeO3,0.0
KTeO4,0.5381
KTeO4,0.3631
KTeOF3,4.2120999999999995
KTeOF3,3.9669
KTeP2,1.2093000000000003
KTh(SbSe3)2,0.6898
KTh2(PO4)3,4.599
KTh2F9,6.4422
KTh2V3O12,3.0708
KTh6F25,6.4565
KTh6F25,6.094900000000001
KThCuS3,2.0422000000000002
KThN5O17,0.0
KThP3O10,5.0116
KThTi2O6,0.0
KTi16O32,0.0
KTi2(PO4)3,2.7134
KTi2(PO4)3,2.5455
KTi2BiO6,1.3770000000000002
KTi2F7,0.0
KTi2H2F11,4.4376
KTi3AlO8,2.5699
KTi3FeO8,2.3423
KTi3NbO9,2.5119000000000002
KTi3Si2P6O25,0.0
KTi4Cl11,0.005700000000000038
KTi5Se8,0.0
KTi6O12,0.0
KTiAsO5,3.0608
KTiBr3,0.0
KTiCl3,0.0
KTiCu3Se4,1.7001
KTiF4,0.06710000000000016
KTiF4,0.0
KTiH2S2O9,0.0
KTiI3,0.0
KTiNbO5,2.7073
KTiO2F,0.8895
KTiO3,0.0
KTiP2O7,0.13399999999999945
KTiPCO7,2.3913
KTiPO5,2.7766
KTiPO5,3.0442
KTiPS5,1.2217
KTiPSe5,0.601
KTiS2,0.0
KTl,0.0
KTl,0.11549999999999994
KTl(CoSe)4,0.0
KTl(SO4)2,2.049
KTl2,0.0
KTl2Bi,0.0
KTl2CrF6,3.5979
KTl2GaF6,4.5515
KTl2MoF6,2.4401
KTl3,0.0
KTl4(CoSe)10,0.0
KTlBr3,0.9246
KTlBr4,1.8089
KTlCl2,4.032
KTlCl3,1.097
KTlCl4,2.3241
KTlF3,1.9647
KTlF4,2.3468
KTlI3,0.0
KTlO,1.1638000000000002
KTlO2,0.8820000000000001
KTlS2,1.1647999999999998
KTlSe2,1.3576000000000001
KTm(CO3)2,4.5095
KTm(MoO4)2,3.1386000000000003
KTm(MoO4)2,3.5609
KTm2Cl7,4.7734
KTm2Cu3Se5,1.0489999999999995
KTm2F7,7.0594
KTmBeF6,7.4658
KTmBr3,0.0
KTmF4,6.8499
KTmI3,0.0
KTmO2,3.9715000000000003
KTmP2O7,5.046200000000001
KU(SeO4)2,0.0643
KU(TeO4)2,0.26290000000000013
KU11(GeO19)2,0.2987000000000002
KU2(B5O12)2,0.19599999999999998
KU2(PO4)3,0.23360000000000003
KU2(PO4)3,0.0
KU2F9,0.17140000000000022
KU2F9,0.2237
KU2H5C4O15,2.117
KU2P3O14,2.3916
KU2SbSe8,0.0
KU6F25,0.00749999999999984
KUClO3,1.7582999999999998
KUCrNO9,2.1177
KUCrO6,1.4337999999999997
KUCuS3,0.0
KUCuSe3,0.0
KUH3SO8,2.0209
KUH3SO8,2.1654999999999998
KUH3SO8,2.0928
KUHSO7,2.1222
KUI3O11,1.9515
KUN3O11,2.4051
KUN3O11,2.3262
KUNbO6,1.9425999999999999
KUO3,0.44540000000000024
KUP(H2O3)3,2.4731
KUP3O11,2.1775
KUP3O11,2.1726
KUSi2O7,0.5523000000000002
KUSiHO6,2.1687999999999996
KUVIO10,0.3862
KUVO6,2.0305
KUVO6,1.9806
KUVO6,1.9565
KV(CuS2)2,1.076
KV(CuSe2)2,0.5844999999999998
KV(IO4)2,2.466
KV(SO4)2,2.1391999999999998
KV12O30,2.1605
KV13O20,0.5906999999999996
KV2(PO5)3,0.0
KV2AgO6,2.1316
KV2CrO7,1.8417000000000001
KV2Fe(AgO4)2,1.9738000000000002
KV2P2H4O13,0.0
KV2PO8,2.2428
KV2PO8,1.7702
KV2SbO8,2.5263
KV2SeO7,2.1253
KV3(PO4)4,0.0
KV3(PbO3)4,2.9891000000000005
KV3(SeO6)2,2.3366000000000002
KV3Cd4O12,1.9912999999999998
KV3CdCu4O13,0.06659999999999999
KV3Cu5O13,0.0
KV3Ge2O9,1.6320999999999999
KV3O8,1.8135000000000001