formula,band_gap
Ba2SmWO6,0.0
Ba2Sn,0.0
Ba2Sn2F11,0.0
Ba2SnHg,0.03740000000000032
Ba2SnN2,0.2879999999999998
Ba2SnO4,2.4421999999999997
Ba2SnS3F2,2.3078000000000003
Ba2SnS4,2.3103
Ba2SnS4,1.9550999999999994
Ba2SnSe3F2,1.7221999999999997
Ba2SnSe4,1.2645999999999997
Ba2SnSe5,1.3443
Ba2SnSe5,1.1383999999999999
Ba2SnTe5,0.0
Ba2SnWO6,1.5556
Ba2SnWO6,1.1981000000000002
Ba2Sr(IrO3)3,0.0
Ba2Sr(PO4)2,5.309799999999999
Ba2Sr(ZrSe3)3,0.3380000000000001
Ba2Sr2CaTi5O15,1.7732
Ba2Sr2Co(CuO4)3,0.0
Ba2Sr2CoCu3O10,0.0
Ba2Sr2La2Cu6O13,0.0
Ba2Sr2Y2Cu6O13,0.0
Ba2Sr3CaMg2(SiO4)4,4.747299999999999
Ba2Sr3CaMg2(SiO4)4,4.755699999999999
Ba2Sr3Nb10O30,2.326
Ba2Sr3Nb10O30,2.2048
Ba2Sr5B4S13,2.5476
Ba2Sr6Co3(CuO4)5,0.047699999999999854
Ba2Sr6Co3Cu5O24,0.0
Ba2Sr6Co5(CuO8)3,0.0
Ba2Sr6Co5Cu3O20,0.0026999999999999247
Ba2Sr6Ti7MnO22,0.0
Ba2Sr6Ti7MnO24,1.0421
Ba2Sr7I18,3.2106
Ba2SrB18,0.8369000000000004
Ba2SrCa3Mg2(SiO4)4,4.8951
Ba2SrCrO6,0.6941999999999999
Ba2SrCrO6,0.6776
Ba2SrFeO6,0.0
Ba2SrI6,3.8592999999999997
Ba2SrI6,3.7685
Ba2SrI6,2.5702000000000003
Ba2SrI6,3.8045999999999998
Ba2SrI6,3.6619
Ba2SrI6,3.0347
Ba2SrI6,3.4889
Ba2SrI6,3.9756
Ba2SrI6,2.9057
Ba2SrI6,3.3889
Ba2SrI6,3.4322000000000004
Ba2SrI6,3.5154
Ba2SrIrO6,0.0
Ba2SrMg4F14,6.6106
Ba2SrMnO6,0.0
Ba2SrN2,0.0
Ba2SrSeO6,2.3123000000000005
Ba2SrTa6(Bi2O9)3,1.5936
Ba2SrTeO6,3.1291999999999995
Ba2SrTi3O9,1.8073000000000001
Ba2SrTm6O12,2.4154
Ba2SrUO6,2.2601000000000004
Ba2SrUO6,2.2553
Ba2SrUO6,2.0496
Ba2SrV2O8,3.7201
Ba2SrWO6,3.1754000000000002
Ba2SrWO6,3.2199
Ba2SrWO6,3.2504
Ba2SrWO6,3.3505000000000003
Ba2SrY2Cu2PtO10,0.5853999999999995
Ba2Ta15O32,0.0
Ba2Ta15O32,1.0410000000000004
Ba2Ta2O7,2.9228999999999994
Ba2Ta2O7,2.9092000000000002
Ba2Ta6Te2O21,2.8259000000000003
Ba2TaBiO6,2.5855
Ba2TaBiO6,2.6384999999999996
Ba2TaBiO6,2.6759000000000004
Ba2TaCoO6,1.5327999999999995
Ba2TaCrO6,0.5778000000000008
Ba2TaCu2Pb2ClO8,0.5034000000000001
Ba2TaFeO6,1.8622999999999998
Ba2TaInO6,3.9458999999999995
Ba2TaMnO6,0.0
Ba2TaMnO6,1.1822999999999997
Ba2TaMnO6,1.1315
Ba2TaMnO6,1.1694
Ba2TaN3,2.0155000000000003
Ba2TaTlO6,2.241
Ba2Tb2Co4O11,0.0
Ba2Tb2Mn4O11,0.25139999999999985
Ba2Tb2Ti2Cu2O11,0.0
Ba2TbBiO6,1.8106
Ba2TbBiO6,1.7238000000000002
Ba2TbBiO6,1.7302
Ba2TbCeO6,0.0
Ba2TbCl7,4.8529
Ba2TbHfO6,0.0
Ba2TbIrO6,0.0
Ba2TbMoO6,0.0
Ba2TbNbO6,2.8523000000000005
Ba2TbNbO6,2.9054
Ba2TbNbO6,2.9923
Ba2TbPaO6,3.4648999999999996
Ba2TbPrO6,0.0
Ba2TbReO6,0.0
Ba2TbSbO6,3.5071999999999997
Ba2TbSnO6,0.0
Ba2TbTaO6,3.5127999999999995
Ba2TbTaO6,3.371
Ba2TbV3O11,3.4739
Ba2TbWO6,1.6795
Ba2TbWO6,0.0
Ba2TbWO6,1.7819000000000003
Ba2TbZrO6,0.0
Ba2Tc2O5,0.0
Ba2TeO,1.783
Ba2TeP2O9,3.4372
Ba2ThCrTe7,0.0
Ba2ThCu2S5,0.9000000000000004
Ba2ThCu2Se5,0.7546000000000004
Ba2ThS6,1.3091000000000004
Ba2Ti(GeO4)2,3.7129000000000003
Ba2Ti(SiO4)2,3.7274000000000003
Ba2Ti11O24,2.3419999999999996
Ba2Ti13O22,0.0
Ba2Ti2AlF11,0.0
Ba2Ti2CuF14,0.7757000000000001
Ba2Ti2F11,0.0
Ba2Ti2O5,0.0
Ba2Ti2Si2O9F2,3.3266
Ba2Ti3Nb4O18,2.5979
Ba2Ti3Tl2O10,0.5450000000000004
Ba2Ti4Cr2O13,1.8433000000000002
Ba2Ti4Fe2O13,1.0861999999999998
Ba2Ti5(Bi2O9)2,1.3552999999999997
Ba2Ti5(Bi2O9)2,1.8213
Ba2Ti6N2O11,1.7616
Ba2Ti6N2O11,1.8464
Ba2Ti6N2O11,1.4450000000000003
Ba2Ti6N2O11,2.0877999999999997
Ba2Ti6O13,0.0
Ba2Ti9O20,2.7429
Ba2TiFeO6,0.0
Ba2TiMn2Si2PO13,0.0
Ba2TiMnO6,1.1587999999999998
Ba2TiO4,4.144
Ba2TiO4,1.8809999999999998
Ba2TiO4,4.2635
Ba2TiOF6,3.6382000000000003
Ba2TiS4,2.0967999999999996
Ba2TiVS6,0.0
Ba2Tl(HO)7,2.4953000000000003
Ba2Tl2Bi3O10,0.0
Ba2Tl2Cu2HgO8,0.0
Ba2Tl2CuO6,0.0
Ba2Tl2Fe3O10,0.0
Ba2Tl2O5,0.6503999999999999
Ba2Tl2Zn2Co3O10,0.0
Ba2Tl2Zn2Cu3O10,0.0
Ba2Tl2Zn2Ni3O10,0.0
Ba2Tl2Zn3(CuO3)4,0.0
Ba2Tl2Zn3(NiO3)4,0.0
Ba2Tl7Au,0.0
Ba2TlBi2O7,0.0
Ba2TlCd,0.0
Ba2TlCu3O7,0.0
Ba2TlCuHgO5,0.0
Ba2TlCuO5,0.0
Ba2TlF7,3.1260000000000003
Ba2TlHg,0.0
Ba2TlSbO6,0.0
Ba2TlZn,0.0
Ba2Tm(CuO2)4,0.0
Ba2Tm2CuPtO8,0.2841
Ba2Tm2Zn8O13,1.6683
Ba2TmCl7,4.9744
Ba2TmCu3O7,0.0
Ba2TmMoO6,0.0
Ba2TmNbO6,2.8502
Ba2TmPaO6,3.4494
Ba2TmReO6,0.0
Ba2TmRuO6,0.06450000000000022
Ba2TmTaO6,3.4065000000000003
Ba2U(AsO5)2,2.2615
Ba2U(Cu2Se3)2,0.0
Ba2U(PO5)2,2.1158
Ba2U(PO5)2,2.1977
Ba2U2O7,0.3482000000000003
Ba2UBeO6,1.7398999999999996
Ba2UCdO6,1.8464
Ba2UCoO6,0.0
Ba2UCrO6,0.9356999999999998
Ba2UCrTe7,0.0
Ba2UCu2S5,0.0
Ba2UCu2Se5,0.0
Ba2UCuO6,0.07309999999999928
Ba2UCuO6,0.0
Ba2UFeO6,0.5156000000000001
Ba2UGeO6,0.6334000000000009
Ba2UHgO6,1.6345
Ba2UInO6,0.7102000000000004
Ba2UMnO6,0.06130000000000013
Ba2UNiO6,1.6246
Ba2UPbO6,1.1945999999999994
Ba2US6,0.0
Ba2UTiO6,0.0
Ba2UTiTe7,0.0
Ba2UZnO6,1.7862999999999998
Ba2V(CuS2)3,0.4395000000000002
Ba2V(SiO4)2,2.6343
Ba2V2BiPO11,2.9991999999999996
Ba2V2CuBrO8,0.2924
Ba2V2CuClO7,1.0395000000000003
Ba2V2CuClO8,0.0
Ba2V2CuF12,0.7418
Ba2V2F11,0.9068
Ba2V2FeHO9,2.2895
Ba2V2FeO9,0.29999999999999993
Ba2V2O5,0.0
Ba2V2O5,0.2952999999999997
Ba2V2O5,0.02120000000000033
Ba2V2O7,3.2509
Ba2V2Te2O11,3.2676000000000003
Ba2V2ZnCuF14,0.4786999999999999
Ba2V2ZnO8,3.4336
Ba2V3BiO11,2.6881000000000004
Ba2V3BiO11,3.0455
Ba2V3HO9,1.9502
Ba2V3InO11,2.8449
Ba2V3O9,1.5728
Ba2V3P6HO22,0.3759999999999999
Ba2V4Cd3O15,2.7739
Ba2V5(PO6)4,1.0383
Ba2VBiO6,1.1362999999999999
Ba2VBiO6,1.1225
Ba2VCu2F12,0.6976000000000001
Ba2VFeO6,1.0389
Ba2VFeO6,0.6837
Ba2VI5O17,2.6428999999999996
Ba2VMoO6,0.40029999999999966
Ba2VN3,1.1814
Ba2VO4,1.2970000000000006
Ba2VP2O11,0.13229999999999997
Ba2VP2O9,2.5501
Ba2VTe4HO13,2.8673999999999995
Ba2W2F11,2.8531
Ba2WO3F4,3.6496999999999997
Ba2WO5,2.9568999999999996
Ba2WO6,0.0
Ba2Y(CuO2)3,0.0
Ba2Y(CuO2)4,0.0
Ba2Y2Co3CuO10,0.0
Ba2Y2Co4O11,0.0
Ba2Y2Co4O9,0.0
Ba2Y2CuPtO8,0.21160000000000023
Ba2Y2FeCo2CuO10,0.0
Ba2Y2Mg(Fe2O5)2,0.9007000000000005
Ba2Y2Mn4O11,0.11549999999999994
Ba2Y2Mn4O11,0.16270000000000007
Ba2Y2Zn8O13,1.6886
Ba2Y3Si2O8F5,4.8235
Ba2Y5Cl19,4.2890999999999995
Ba2Y5Cl19,4.263999999999999
Ba2Y5F19,6.1194
Ba2Y7Cl25,4.1376
Ba2YAg3O8,0.0
Ba2YAg5S6,1.3657999999999997
Ba2YB2ClO6,4.0621
Ba2YBiO6,1.7584999999999997
Ba2YBiO6,1.8236999999999997
Ba2YBr7,3.5502000000000002
Ba2YBr7,3.017
Ba2YBr7,3.3024000000000004
Ba2YBr7,3.6975
Ba2YBr7,3.3399
Ba2YBr7,3.6818
Ba2YBr7,3.6951
Ba2YC2(O2F)3,5.263999999999999
Ba2YCl7,3.8252000000000006
Ba2YCl7,4.7082999999999995
Ba2YCl7,4.5266
Ba2YCl7,4.6338
Ba2YCl7,4.3210999999999995
Ba2YCl7,4.1943
Ba2YCo2F11,0.3024
Ba2YCo3O7,0.0
Ba2YCo3O8,0.0
Ba2YCoCu2O7,0.0
Ba2YCoO5,1.5617000000000003
Ba2YCr2F11,3.1167
Ba2YCr3O7,0.007800000000000473
Ba2YCr3O7,0.6379000000000001
Ba2YCr3O7,0.7131999999999996
Ba2YCr3O8,0.0
Ba2YCu2F11,0.8523999999999999
Ba2YCu2HgO7,0.0
Ba2YCu3(PbO4)2,0.0
Ba2YCu3O6F,0.0
Ba2YCu3O7,0.0
Ba2YCu3O8,0.0
Ba2YCu3PbO7,0.0
Ba2YCu3S7,0.0
Ba2YCuO5,0.0
Ba2YF7,6.9432
Ba2YF7,6.5161
Ba2YF7,6.2373
Ba2YF7,6.9627
Ba2YFe2F11,3.7986999999999997
Ba2YFe3O8,0.0
Ba2YFeO5,2.8847000000000005
Ba2YGaSe5,1.6616
Ba2YGaTe5,0.42220000000000013
Ba2YI7,2.7232
Ba2YI7,2.3738
Ba2YI7,2.4651
Ba2YI7,2.8993
Ba2YI7,2.5656
Ba2YI7,2.9120999999999997
Ba2YInSe5,1.1767999999999996
Ba2YInTe5,0.47319999999999984
Ba2YIrO6,0.0
Ba2YMgCo3O8,0.0
Ba2YMgMn3O8,0.0
Ba2YMn2F11,3.7117999999999998
Ba2YMn2TlO7,0.0
Ba2YMn3O7,0.0
Ba2YMn3O7,0.11139999999999972
Ba2YMn3O7,0.07969999999999988
Ba2YMn3O8,0.0
Ba2YMn3O8,0.1198999999999999
Ba2YMo3O8,0.0
Ba2YMoO6,0.0
Ba2YNbO6,2.9072000000000005
Ba2YNbO6,2.8514
Ba2YNi2F11,4.6917
Ba2YNi3O7,0.0
Ba2YNi3O8,0.0
Ba2YOsO6,0.05509999999999993
Ba2YPaO6,3.4919999999999995
Ba2YReO6,0.0
Ba2YRuO6,0.09030000000000005
Ba2YSbO6,3.5546999999999995
Ba2YSbO6,3.5377
Ba2YSn2F11,3.2299999999999995
Ba2YSn3O8,0.0
Ba2YTaO6,3.4638999999999998
Ba2YTaO6,3.362
Ba2YTi2F11,0.0
Ba2YTi3O7,0.0
Ba2YTi3O8,0.0
Ba2YTlCo2O7,0.0
Ba2YTlCr2O7,0.0
Ba2YTlCu2O7,0.0
Ba2YTlFe2O7,0.0
Ba2YTlNi2O7,0.25709999999999944
Ba2YUO6,0.8651999999999997
Ba2YV2F11,2.4633
Ba2YV3O11,3.4645
Ba2YV3O7,0.0
Ba2YV3O8,0.0
Ba2YWO6,1.7928000000000002
Ba2YZrO6,0.0
Ba2Zn,0.0
Ba2Zn(BO2)6,4.2768999999999995
Ba2Zn(BO3)2,3.3327999999999998
Ba2Zn2ClF7,4.3544
Ba2Zn2Cr7Ga2(SnO11)2,0.0
Ba2Zn2TeP2O11,4.1025
Ba2Zn3(AsO)2,0.11760000000000037
Ba2Zn3(PO)2,0.41400000000000015
Ba2Zn3(PO3)10,4.5931
Ba2Zn3F10,4.3453
Ba2Zn7F18,4.0504999999999995
Ba2ZnAg2(SeO)2,1.6140999999999996
Ba2ZnAs2,0.6404000000000001
Ba2ZnBi2,0.0823999999999998
Ba2ZnCd,0.0
Ba2ZnCr2CuF14,3.0107
Ba2ZnCu3F14,0.0
Ba2ZnCuAg2F14,0.03810000000000002
Ba2ZnCuBi2F14,1.3302
Ba2ZnCuNi2F14,0.0
Ba2ZnCuSb2F14,3.8585999999999996
Ba2ZnCuSn2F14,0.0
Ba2ZnF6,4.732399999999999
Ba2ZnFe2CuF14,0.48460000000000003
Ba2ZnFe2F14,0.18390000000000017
Ba2ZnGe2O7,3.1063
Ba2ZnGe2S6O,2.1081000000000003
Ba2ZnHg,0.0
Ba2ZnIn,0.0
Ba2ZnMoO6,2.3851999999999998
Ba2ZnN2,0.4771000000000001
Ba2ZnO3,2.6704
Ba2ZnOsO6,0.0
Ba2ZnReO6,0.0
Ba2ZnS3,2.0968
Ba2ZnS3,2.0208000000000004
Ba2ZnSb2,0.29220000000000024
Ba2ZnSe3,1.6214000000000002
Ba2ZnSi2O7,4.0027
Ba2ZnTe3,1.2922000000000002
Ba2ZnTeO6,0.4443999999999999
Ba2ZnWO6,3.3679
Ba2Zr2(SiO4)3,4.2351
Ba2Zr6BCl17,0.8424999999999998
Ba2Zr7O16,3.7062
Ba2ZrF8,5.9374
Ba2ZrInO6,0.0
Ba2ZrO4,2.9787999999999997
Ba2ZrS4,0.6025
Ba2ZrSnO6,3.6894
Ba2ZrTiO6,2.2161
Ba2ZrUO6,0.0
Ba2ZrWO6,0.0
Ba3(AlAs2)2,1.0680000000000005
Ba3(AlGe)2,0.0
Ba3(AlN2)2,1.5661999999999998
Ba3(AlP2)2,1.2821999999999996
Ba3(AlPt)4,0.0
Ba3(AlSi)2,0.0
Ba3(AlSn)2,0.0
Ba3(AsO4)2,3.9060000000000006
Ba3(BN2)2,2.5171
Ba3(BO3)2,4.1693
Ba3(BO3)2,3.1068999999999996
Ba3(Br2Cl)2,4.379700000000001
Ba3(BrO)2,2.2886
Ba3(BrO)2,2.2005000000000003
Ba3(BrO)2,2.472
Ba3(BrO)2,2.3516
Ba3(BrO)2,2.2906
Ba3(CdAs2)2,0.0
Ba3(CdSb2)2,0.0
Ba3(ClO)2,2.4432
Ba3(ClO)2,2.4532999999999996
Ba3(ClO)2,2.1949
Ba3(ClO)2,2.3346999999999998
Ba3(ClO)2,2.5038
Ba3(CrN2)2,0.0
Ba3(CrS3)2,0.0
Ba3(FeN2)2,0.0
Ba3(GaN2)2,1.4937000000000005
Ba3(GaS3)2,2.6781999999999995
Ba3(Ge4Ir)4,0.0
Ba3(Ge4Rh)4,0.0
Ba3(GeN)2,0.0
Ba3(H6Ir)2,3.1535
Ba3(InP2)2,1.1092
Ba3(LaI6)2,2.1925
Ba3(LiAs)4,0.0
Ba3(LiBi)4,0.0
Ba3(LiSb)4,0.0
Ba3(LiSn2)4,0.0
Ba3(MnN2)2,0.0
Ba3(MoN2)2,0.0
Ba3(NaSb2)2,0.7003999999999997
Ba3(NbN2)2,0.0
Ba3(PO4)2,5.1422
Ba3(PS4)2,2.1538
Ba3(PS4)2,2.0034
Ba3(PSe4)2,1.1278000000000001
Ba3(RhO2)14,0.0
Ba3(RuN2)2,0.0
Ba3(SbO3)2,2.9311
Ba3(Si2P3)2,0.40529999999999955
Ba3(SiAs2)2,0.8265000000000002
Ba3(SnAs2)2,0.7525
Ba3(SnP2)2,0.8061999999999996
Ba3(SnP2)2,0.8645999999999998
Ba3(TaN2)2,0.0
Ba3(TaS4)2,0.7451999999999996
Ba3(TiN2)2,0.0
Ba3(VN2)2,0.0
Ba3(YI6)2,2.3958
Ba3(YI6)2,2.5542
Ba3(YI6)2,2.8015
Ba3(ZnAs2)2,0.0
Ba32Sb7Pb25O96,0.0
Ba36Al9Sn23,0.0
Ba38Na58Li26H,0.060799999999999965
Ba38Na58Li26N,0.023699999999999943
Ba39Li80N9,0.0
Ba3Ac,0.0
Ba3Ag2,0.0
Ba3Al2B10H4O23,4.970899999999999
Ba3Al2Cu2F16,0.3173
Ba3Al2F12,6.7238
Ba3Al2Ga2(FeO6)2,3.2184
Ba3Al2O6,3.8611999999999993
Ba3Al3As5,1.2935999999999996
Ba3Al3Ga2,0.0
Ba3Al3N5,1.7764999999999995
Ba3Al3P5,1.4661
Ba3Al5,0.0
Ba3AlAs3,0.6837999999999997
Ba3AlF9,6.3002
Ba3AlF9,6.4449
Ba3AlF9,6.5801
Ba3AlHO4,4.0379000000000005
Ba3AlN3,0.3069000000000002
Ba3AlO4,0.0
Ba3AlP3,0.6886999999999999
Ba3AlSb3,0.4704999999999999
Ba3As14,1.0907
Ba3As2H14S8O7,1.7364
Ba3As2H34O25,4.1695
Ba3As4(HO7)2,3.5121
Ba3AsN,0.0
Ba3Au2,0.0
Ba3B(BrO)3,3.7561000000000004
Ba3B(PO4)3,5.0114
Ba3B3N5,2.0126
Ba3B3Pb2BrO9,3.2581
Ba3B3Pb2ClO9,3.3651999999999997
Ba3B6H2O13,5.0891
Ba3B6O11F2,5.2662
Ba3BAsO3,1.5232999999999999
Ba3BN3,0.19750000000000023
Ba3BPO3,1.4667000000000003
Ba3BPO7,3.3373
Ba3Be2B5HO13,3.6139
Ba3BeIr2O9,0.0
Ba3Bi,0.0
Ba3Bi(BO2)9,4.286300000000001
Ba3Bi(ClO)3,3.9283
Ba3Bi2(PO4)4,3.5656
Ba3Bi2F12,5.1102
Ba3Bi2I2O5,0.9866000000000001
Ba3Bi2PbO9,0.0
Ba3Bi2RuO9,0.4466000000000001
Ba3Bi2TeO9,2.1188
Ba3Bi6PbSe13,0.8085
Ba3BiAs,0.0
Ba3BiIr2O9,0.0
Ba3BiIrRuO9,0.06430000000000025
Ba3BiN,0.0
Ba3BiN,0.6466000000000003
Ba3BiP,0.0
Ba3BiPb2O9,0.0
Ba3BiRu2O9,0.0
Ba3CCl4O3,4.6687
Ba3CN3,0.0
Ba3Ca,0.0
Ba3Ca2(SiN3)2,1.565
Ba3Ca3(MoN4)2,2.2313
Ba3CaBi2O9,0.25039999999999996
Ba3CaCuSi6O17,1.1382000000000003
Ba3CaI8,2.9489
Ba3CaIr2O9,0.0
Ba3CaLa2(Cu3O7)2,0.0
Ba3CaLa2Cu6O13,0.0
Ba3CaNb2O9,2.6460000000000004
Ba3CaO4,2.11
Ba3CaRu2O9,0.0
Ba3CaSb2O9,3.1711000000000005
Ba3CaTa2O9,3.2256999999999993
Ba3CaTi3O8,0.0
Ba3CaTiWO9,3.146
Ba3CaZrWO9,0.0
Ba3Cd(GeO4)2,2.8589
Ba3Cd(SiO4)2,3.5869999999999997
Ba3Cd(SnS4)2,2.0791000000000004
Ba3CdHg10,0.0
Ba3CdIr2O9,0.0
Ba3Ce2C5O15F2,0.31730000000000036
Ba3Ce2C5O15F2,0.3047000000000004
Ba3Ce2C5O15F2,0.2561
Ba3Ce2O6,0.0
Ba3CeIr2O9,0.0
Ba3CeRu2O9,0.0
Ba3Co(CN)3,0.7976999999999999
Ba3Co10O17,0.0
Ba3Co2(NO2)12,2.1153
Ba3Co2WO9,0.0
Ba3Co3N5,0.0
Ba3Co3Te(PO7)2,2.5517000000000003
Ba3Co8Sn3O20,0.0
Ba3CoIr2O9,0.0
Ba3CoN3,0.0
Ba3CoO5,0.4220999999999999
Ba3CoRu2O9,0.0
Ba3CoSb2O9,0.0
Ba3Cr2MoO9,0.0
Ba3Cr2O8,1.0905999999999998
Ba3Cr2O8,1.1218
Ba3Cr2O8,1.1478000000000002
Ba3Cr2O8,1.0741999999999998
Ba3Cr2O8,0.0
Ba3Cr2O8,1.0490999999999997
Ba3Cr2WO9,0.0
Ba3Cr3N5,0.0
Ba3CrN3,0.0
Ba3CrO5,1.5029000000000003
Ba3CrS5,0.0
Ba3Cu17AgP6,0.0
Ba3Cu2(ClO2)2,0.17490000000000006
Ba3CuRu2O9,0.0
Ba3CuSb2O9,0.0
Ba3Dy(BO2)9,5.1786
Ba3Dy(BO3)3,3.8533
Ba3Dy2(PS4)4,2.3736000000000006
Ba3Dy2MoO9,1.3959000000000006
Ba3Dy2WO9,2.2084
Ba3Dy4O9,3.2313
Ba3DyIrRuO9,0.0
Ba3DyRu2O9,0.0
Ba3DyUFeO9,1.4773
Ba3Er(BO2)9,5.217700000000001
Ba3Er(BO3)3,3.8598999999999997
Ba3Er2(PS4)4,2.3777000000000004
Ba3Er2Cu2PtO10,0.0
Ba3Er2MoO9,2.063
Ba3Er4O9,3.2746
Ba3ErIrRuO9,0.0
Ba3ErMn2O9,0.0
Ba3ErRu2O9,0.0
Ba3Eu,0.0
Ba3Eu(BO2)9,0.0
Ba3Eu3(Fe3O8)2,0.0
Ba3EuRu2O9,0.021500000000000075
Ba3Fe10SnO20,1.7977999999999998
Ba3Fe2(Ge2O7)2,0.3967999999999998
Ba3Fe26O41,0.4319000000000002
Ba3Fe2Br2O5,2.4063
Ba3Fe2BrO5,0.0
Ba3Fe2Cl2O5,2.4471
Ba3Fe2P4(O6F5)2,0.7347
Ba3Fe2TeO5,0.0
Ba3Fe2TeO9,1.7012999999999998
Ba3Fe2WO9,1.5158999999999998
Ba3Fe3N5,0.0
Ba3Fe3O8,0.0
Ba3Fe3Se7,0.0
Ba3Fe4P8PbO28,4.0495
Ba3Fe8Sn3O20,0.04290000000000038
Ba3FeGe5O14,1.597
Ba3FeN3,0.0
Ba3FeO5,0.0
Ba3FeRu2O9,0.0
Ba3FeS4Br,0.4962
Ba3FeS5,0.3853
Ba3FeS5,0.0
Ba3Ga2(Ge2O7)2,2.2589999999999995
Ba3Ga2B10H4O23,4.7953
Ba3Ga3N5,1.4175999999999997
Ba3Ga3P5,1.2456
Ba3Ga4O9,2.9232
Ba3Ga4Sb5,0.0
Ba3GaAs3,0.6858
Ba3GaN3,0.28049999999999997
Ba3GaP3,0.601
Ba3GaS4Br,3.0328
Ba3GaS4Cl,3.1691000000000003
Ba3GaSb3,0.34189999999999987
Ba3GaSe4Cl,2.6100000000000003
Ba3Gd(BO2)9,3.6864000000000003
Ba3Gd2(PS4)4,1.4043999999999999
Ba3GdInS6,1.9502000000000002
Ba3GdIrRuO9,0.0
Ba3Ge2(B3O8)2,4.1759
Ba3Ge2B7H3O20,0.0
Ba3Ge4,0.0
Ba3Ge5,0.0
Ba3Ge9O22,0.14759999999999995
Ba3GeI2,0.0
Ba3GeO,0.3565999999999998
Ba3GeO5,2.7592
Ba3GeO5,2.5961999999999996
Ba3GeO5,2.6900000000000004
Ba3GeO5,2.9101999999999997
Ba3GeS5,2.0632
Ba3Hf2O7,3.5653
Ba3HfNb4O15,2.2464
Ba3HfTa4O15,2.4646999999999997
Ba3Ho(BO2)9,5.1913
Ba3Ho(BO3)3,3.8238000000000003
Ba3Ho2(PS4)4,2.3798999999999997
Ba3Ho2Cu2PtO10,0.0
Ba3Ho2MoO9,2.1402
Ba3Ho4O9,3.2565000000000004
Ba3HoIrRuO9,0.0
Ba3HoRu2O9,0.0
Ba3In(BO2)9,4.7243
Ba3In(BO3)3,3.4936999999999996
Ba3In2(HO)12,3.2603
Ba3In2(PO4)4,3.7254
Ba3In2Br2O5,1.2907000000000002
Ba3In2Cl2O5,1.4236000000000004
Ba3In2F12,4.5144
Ba3In2MoO9,1.8273000000000001
Ba3In2O5F2,1.5869000000000004
Ba3In2O6,0.8820000000000001
Ba3In2P6(HO3)6,4.755000000000001
Ba3In2WO9,2.6883999999999997
Ba3In2WO9,2.6734
Ba3In4(CuO4)3,0.0
Ba3InAs3,0.5167000000000002
Ba3InHg10,0.0
Ba3InIr2O9,0.01639999999999997
Ba3InIrRuO9,0.0
Ba3InRu2O9,0.0
Ba3InS4Cl,2.8257
Ba3InSe4Cl,2.4336
Ba3Ir(CN)3,0.6643000000000003
Ba3IrN3,0.0
Ba3La,0.0
Ba3La2(BO3)4,4.0127
Ba3La2Br12,3.2308000000000003
Ba3La2C5O15F2,3.9044
Ba3La2Cl12,3.7680000000000002
Ba3La2Cl12,3.8598
Ba3La2Cl12,4.0692
Ba3La2Ti2Nb2O15,2.3876
Ba3La2Ti3Cr2O15,1.5316
Ba3La3(Cu3O7)2,0.0
Ba3La3Mn2(WO6)3,1.4413999999999998
Ba3La3Pr3Cu9O22,0.0
Ba3La3Ti4NbO18,2.4082999999999997
Ba3La5Tl2(Cu2O9)2,0.0
Ba3La7Mn(Co3O10)3,0.0
Ba3La7Ti3Cr7O30,1.5262000000000002
Ba3La9Mg7Nb5O36,2.9983000000000004
Ba3LaBr9,3.0351999999999997
Ba3LaCl9,3.6816
Ba3LaCl9,4.3826
Ba3LaI9,2.8489999999999993
Ba3LaIn(WO6)2,3.0435
Ba3LaIr2O9,0.0
Ba3LaIrRuO9,0.0
Ba3LaMgIn(WO6)2,1.843
Ba3LaNb3O12,2.6586
Ba3LaRu2O9,0.0
Ba3LaTa3O12,3.181
Ba3LaV3O12,3.2286
Ba3LaY2(Cu3O7)2,0.0
Ba3LaZnReWO12,2.0437999999999996
Ba3Li,0.0
Ba3Li(AsO4)2,0.0
Ba3Li(AsO4)2,0.1288999999999998
Ba3Li2B10(H3O11)2,5.4423
Ba3Li2Mo4P6(ClO14)2,2.1138
Ba3Li2V2Cl4O7,3.1302
Ba3LiIn11,0.0
Ba3LiIr2O9,0.0
Ba3LiIrRuO9,0.0
Ba3LiN,0.0
Ba3LiOs2O9,0.0
Ba3LiRu2O9,0.0
Ba3LiTa3Ti5O21,2.2708000000000004
Ba3LiTi3O8,0.0
Ba3LiTi3O8,0.01920000000000055
Ba3LiTi5(SbO7)3,2.3327999999999998
Ba3LiTi5(SbO7)3,2.3975
Ba3LiTi5Nb3O21,2.1934000000000005
Ba3LiTi5Nb3O21,1.8373
Ba3Lu(BO2)9,5.247299999999999
Ba3Lu(BO3)3,3.8583
Ba3Lu2MoO9,1.8982999999999999
Ba3Lu2Zn5O11,2.2892
Ba3Lu4O9,3.1681000000000004
Ba3LuIr2O9,0.0
Ba3LuIrRuO9,0.0
Ba3LuRu2O9,0.0
Ba3Mg(SiO4)2,4.6934000000000005
Ba3MgCr2O8,1.5036
Ba3MgGeN4,1.2902
Ba3MgIr2O9,0.0
Ba3MgIrRuO9,0.0
Ba3MgMn3O9,1.0764999999999998
Ba3MgMn3O9,0.3073999999999999
Ba3MgMn3O9,0.7807000000000004
Ba3MgMn3O9,1.1981000000000002
Ba3MgNb2O9,2.6479999999999997
Ba3MgNb2ZnO9,1.5280999999999998
Ba3MgRu2O9,0.0
Ba3MgSb2O9,2.6494
Ba3MgTa2O9,3.2733
Ba3MgTaNbO9,2.8443
Ba3MgTi2O7,0.0
Ba3MgTiWO9,3.0826000000000002
Ba3MgV2O8,1.1833
Ba3MgV2O8,1.7867999999999995
Ba3MgV4O14,3.1827
Ba3Mn2IrO9,0.0
Ba3Mn2O8,1.4078000000000002
Ba3Mn2RuO9,0.19849999999999968
Ba3Mn3N5,0.0
Ba3Mn4PtO12,0.06820000000000004
Ba3MnF12,0.0
Ba3MnN3,0.0
Ba3MnNb2O9,1.7737999999999996
Ba3MnO5,0.8176000000000001
Ba3MnSb2O9,1.5103
Ba3MnV4O14,2.0969
Ba3Mo2(IO9)2,0.0
Ba3Mo2(NO3)2,3.1689
Ba3Mo2(P2O9)2,2.384
Ba3MoN3,0.2958000000000003
Ba3MoN4,1.2879
Ba3MoN4,1.8505000000000003
Ba3MoO6,2.2259
Ba3N,0.0
Ba3N2,0.09779999999999989
Ba3Na,0.0
Ba3Na(SiO4)2,0.14549999999999996
Ba3Na2(CN2)4,3.3120000000000003
Ba3Na2Cr4F20,3.5814
Ba3Na2Ti3Nb2O15,1.5631
Ba3Na3(CO3)5,0.007099999999999995
Ba3Na7Ti3Nb7O30,1.1087000000000002
Ba3NaB24,0.0
Ba3NaBiO6,1.7096000000000002
Ba3NaEu3(Si3O10)2,0.0
Ba3NaGd3(Si3O10)2,3.3773
Ba3NaIr2O9,0.0
Ba3NaIrO6,0.0
Ba3NaIrRuO9,0.0
Ba3NaMn4Si6O22F,0.6761000000000001
Ba3NaMn4Si6O23,0.11629999999999985
Ba3NaN,0.0
Ba3NaNbO6,3.0766
Ba3NaNd3(Si3O10)2,4.346500000000001
Ba3NaOs2O9,0.0
Ba3NaRu2O9,0.0
Ba3NaRuO6,0.5280999999999998
Ba3NaSbO6,2.8068
Ba3NaSi23,0.0
Ba3NaSi2B7O20,0.41290000000000004
Ba3NaSm3(Si3O10)2,4.63
Ba3NaSr(SbO4)3,1.5696999999999997
Ba3NaTaO6,3.4044
Ba3NaY3(Si3O10)2,4.7986
Ba3Nb16O23,0.0
Ba3Nb2(OF3)4,0.26269999999999993
Ba3Nb2(P2O9)2,3.1376
Ba3Nb2CdO9,2.8387000000000002
Ba3Nb2CoO9,0.0
Ba3Nb2CoO9,1.6878000000000002
Ba3Nb2NiO9,2.6807999999999996
Ba3Nb2O8,4.499700000000001
Ba3Nb2Se9,1.0023
Ba3Nb2ZnO9,2.7287
Ba3Nb3N5,0.0
Ba3Nb5O15,0.0
Ba3Nb6(Si2O13)2,2.281
Ba3NbAs3O,1.0685
Ba3NbFe3(SiO7)2,2.3971
Ba3NbGa3(SiO7)2,3.2958
Ba3NbN3,0.5491999999999999
Ba3Nd,0.0
Ba3Nd(BO2)9,5.1019000000000005
Ba3Nd3(Co3O8)2,0.0
Ba3Nd3(Cu3O7)2,0.0
Ba3Nd3Co6O17,0.0
Ba3NdIr2O9,0.0
Ba3NdIrRuO9,0.0009000000000001229
Ba3NdRu2O9,0.0
Ba3NdV3O12,3.2481999999999998
Ba3NiIr2O9,0.0
Ba3NiIrRuO9,0.0
Ba3NiN3,0.0
Ba3NiO4,2.3294999999999995
Ba3NiRu2O9,0.0
Ba3NiSb2O9,0.0
Ba3NiSbRuO9,0.5658000000000003
Ba3OsN3,0.6770000000000005
Ba3P14,1.7751000000000001
Ba3P2,0.2507999999999999
Ba3P2(SeO)4,1.3262
Ba3P3BrO10,5.0533
Ba3P3ClO10,5.1465
Ba3P3I2,0.0
Ba3P4,0.4838999999999998
Ba3P4O13,5.1274
Ba3P4O13,5.1231
Ba3P6(N4O3)2,4.549800000000001
Ba3PN,0.0
Ba3Pb(SO4)4,4.6277
Ba3Pb5,0.0
Ba3PbO,0.0
Ba3Pm,0.0
Ba3Pr,0.0
Ba3Pr(BO2)9,5.0748
Ba3PrF9,5.8738
Ba3PrIr2O9,0.0
Ba3PrIrRuO9,0.0
Ba3PrRu2O9,0.0
Ba3Pt2O7,0.0
Ba3PuO6,0.3789000000000007
Ba3Re2O9,0.0
Ba3ReN3,0.0
Ba3Rh(CN)3,0.6265999999999998
Ba3Ru3N5,0.0
Ba3RuN3,0.0
Ba3Sb,0.0
Ba3Sb2O,0.33279999999999976
Ba3Sb2S7,1.9021999999999997
Ba3Sb2Se7,0.9485999999999999
Ba3Sb4O,0.12069999999999981
Ba3SbI3,1.4021
Ba3SbN,0.0
Ba3SbN,0.6988000000000003
Ba3SbP,0.2991999999999999
Ba3Sc(BO2)9,5.2789
Ba3Sc(BO3)3,3.4741999999999997
Ba3Sc2N4,1.5494000000000003
Ba3Sc2N4,1.6042
Ba3Sc3In(CuO4)3,0.5278999999999998
Ba3Sc3N5,1.7797000000000005
Ba3Sc4(CuO4)3,0.4394999999999998
Ba3ScCO3F7,4.549
Ba3Si2(B3O8)2,5.4031
Ba3Si23,0.0
Ba3Si3N5ClO,1.835
Ba3Si4,0.0
Ba3Si5O13,4.514799999999999
Ba3Si6(NO6)2,4.6093
Ba3Si6N4O9,4.372
Ba3SiI2,0.25039999999999996
Ba3SiO,0.0
Ba3SiO,0.42169999999999996
Ba3SiO5,3.5341
Ba3SiS5,2.8127
Ba3Sm,0.0
Ba3Sm(BO2)9,5.0836
Ba3Sm2WO9,1.8952999999999998
Ba3SmB24,0.0
Ba3SmInS6,2.027
Ba3SmIr2O9,0.0
Ba3SmIrRuO9,0.0
Ba3SmRu2O9,0.0
Ba3Sn2,0.37470000000000026
Ba3Sn2O7,1.6702999999999997
Ba3Sn2S7,2.1916999999999995
Ba3Sn4Bi,0.0
Ba3Sn5,0.0
Ba3SnO,0.0
Ba3SnP3,0.6819000000000002
Ba3SnS4,1.0857
Ba3SnS5,1.6808999999999998
Ba3Sr,0.0
Ba3Sr(CO2)8,3.3897999999999997
Ba3Sr(ClF)4,5.585100000000001
Ba3Sr(CoO3)4,0.0