formula,band_gap
Ba7ZrN6,1.0025
Ba8(Bi2O7)3,0.0
Ba8(CoO3)7,0.1522000000000001
Ba8(MnN3)3,0.0013999999999998458
Ba8Al10B12O41,4.4373
Ba8B5N10F,2.2163
Ba8Bi10O27,0.0
Ba8Bi4H2O,0.5652000000000004
Ba8Bi4O17,1.3327
Ba8Bi4O17,0.7450000000000001
Ba8Bi4O17,1.0517999999999996
Ba8Ca3Nb5O24,0.0
Ba8Ca4Cu8Hg4O25,0.0
Ba8Ca5Mn3Fe8F56,2.2256
Ba8CaY2U4O24,1.8908
Ba8CaY2U4O24,2.5366
Ba8CaY2U4O24,1.9746000000000001
Ba8CaY3(CuO2)12,0.0
Ba8Ce3(SbO6)4,1.8772000000000006
Ba8Ce7YHO24,2.0843
Ba8Co7O19,0.1603000000000001
Ba8Co7O19,0.5323000000000002
Ba8Cu4Hg4O17,0.0
Ba8Cu8O19,0.0
Ba8CuSi16,0.0
Ba8Dy3(Pt2O9)2,0.0
Ba8Eu(BN2)6,0.3669000000000002
Ba8Eu7Cl34,0.0
Ba8Fe3N8,0.0
Ba8Fe8O21,0.0
Ba8Ga7,0.0
Ba8Gd4(Cu4O9)3,0.0
Ba8Ge43,0.022999999999999687
Ba8Ge43,0.0
Ba8Ge43Pd3,0.0
Ba8Ho3(Pt2O9)2,0.0
Ba8In6O17,0.8413999999999997
Ba8In6O17,0.7284999999999999
Ba8In8O19,1.3122000000000003
Ba8Li13GaSb12,0.7191000000000001
Ba8LiNb7O24,0.0
Ba8LiTa7O24,0.0
Ba8Lu3(Pt2O9)2,0.0
Ba8Mn3N8,0.0
Ba8Mn6Co2ClO22,0.40490000000000004
Ba8Mn8O21,0.0
Ba8Mn8O23,0.7296
Ba8Nb6CoO24,0.0
Ba8Nb7O24,0.0
Ba8Nb7S24,0.0
Ba8Ni6N7,0.0
Ba8P5Br,1.1637
Ba8PrY3(Cu3O7)4,0.0
Ba8Re2(WO8)3,0.0
Ba8Sb4H2O,0.6369999999999996
Ba8Sb6S17,1.3935
Ba8Sc3(Pt2O9)2,0.0
Ba8Si43Au3,0.0
Ba8Si43Ni3,0.028699999999999726
Ba8Si6Sn,0.2588999999999997
Ba8Sn4S15,2.0554
Ba8Sr(BN2)6,2.038
Ba8Sr2Sm5(Cu3O7)5,0.0
Ba8Sr3Ca(WO6)4,3.434
Ba8SrCa3(WO6)4,3.3661999999999996
Ba8Ta2Ru3(BrO9)2,0.03799999999999981
Ba8Ta7O24,0.0
Ba8Ti3Co(SiO4)8,0.23110000000000008
Ba8Ti3Nb4O24,1.9693
Ba8Tl2Bi2Pb4O17,0.0
Ba8U2PdSe16,0.35329999999999995
Ba8U3(HgS6)3,0.0
Ba8V7O22,0.0
Ba8Y3Lu(CuO2)16,0.0
Ba8Y4(Cu4O9)3,0.0
Ba8Y4Cu(WO8)3,0.15850000000000009
Ba8Zr3(SbO6)4,2.8434000000000004
Ba8ZrNb19O36,0.0
Ba9(AuO6)2,1.8826999999999998
Ba9(FeSe4)4,0.0
Ba9(LaS6)2,2.2417999999999996
Ba9(NbN6)2,1.2610999999999999
Ba9(NdS6)2,2.1851000000000003
Ba9(RhO3)8,0.0
Ba9(TaN6)2,1.2429000000000001
Ba9Ca3(MoN4)4,2.3264
Ba9Ca3La4(Fe4O15)2,2.4090999999999996
Ba9Fe4S15,0.03849999999999998
Ba9Ge23O57,0.020999999999999908
Ba9Ge23O57,0.07600000000000007
Ba9In4,0.0
Ba9In4(SF)10,2.2436999999999996
Ba9In4H,0.0
Ba9La3Mg5Nb7O36,2.3787
Ba9La5Br33,2.5467
Ba9La5Cl33,3.4450000000000003
Ba9La5I33,2.0466
Ba9LiSi10C(ClO4)7,4.6715
Ba9Nb10O30,0.0
Ba9Nb2CN10O,1.7837999999999998
Ba9Pr6Br34,0.0
Ba9Rh8O27,0.0
Ba9Sc2(SiO4)6,4.3057
Ba9Sm6Cl34,0.0
Ba9U4(Ag5S12)2,0.4032
Ba9Y2(SiO4)6,4.5047
BaAc3,0.0
BaAg,0.0
BaAg(PO3)3,3.1971
BaAg2,0.0
BaAg2(HgO2)2,1.3289
BaAg2GeS4,0.5960999999999999
BaAg2GeSe4,0.03500000000000014
BaAg2SnS4,0.3679000000000001
BaAg2SnSe4,0.0653999999999999
BaAg5,0.0
BaAg8S5,0.4565999999999999
BaAgAs,0.0
BaAgBi,0.0
BaAgO2,0.7334
BaAgO2,0.0
BaAgP,0.12170000000000014
BaAgSF,1.4324
BaAgSb,0.04150000000000009
BaAgSbS3,1.4228999999999998
BaAgSeF,1.2692999999999999
BaAgTeF,1.5109999999999997
BaAl,0.0
BaAl2,0.0
BaAl2(GeO4)2,3.8925
BaAl2(PO5)2,0.011500000000000288
BaAl2(SiO4)2,4.911300000000001
BaAl2(SiO4)2,4.3451
BaAl2(SiO4)2,4.7813
BaAl2(SiO4)2,4.819699999999999
BaAl2B2O7,4.6477
BaAl2H10C2O13,4.8783
BaAl2O4,3.9753999999999996
BaAl2O4,3.9448
BaAl2O4,4.0969
BaAl2Sb2O7,3.4109000000000003
BaAl2Si3(NO)4,3.5521000000000003
BaAl3P2(HO7)2,0.0
BaAl4,0.0
BaAl4(SbO6)2,3.3158000000000003
BaAl4O7,4.1958
BaAl4O7,3.6891
BaAl4O7,4.1765
BaAl4S7,3.1571
BaAl4Se7,2.3933
BaAl5O9,0.0
BaAl9Fe2,0.0
BaAl9Ni2,0.0
BaAlB4H3O10,5.3921
BaAlBO3F2,6.0472
BaAlBO3F2,6.0642000000000005
BaAlCdF7,5.0553
BaAlCo4O7,0.18699999999999983
BaAlCu3Se4,1.5043000000000002
BaAlCu4O7,0.0
BaAlF5,7.1265
BaAlF5,7.2887
BaAlF5,7.1754999999999995
BaAlF5,7.204
BaAlGaO4,3.3930999999999996
BaAlGe,0.0
BaAlGeF,0.0
BaAlGeH,0.7492999999999999
BaAlH5,2.7537
BaAlO3,0.0
BaAlPO5F,0.3407
BaAlSi,0.0
BaAlSi4N5O3,3.2165
BaAlSi5N7O2,4.015899999999999
BaAlSiH,0.7092999999999998
BaAlSn,0.0
BaAs2,0.41449999999999987
BaAs2F12,3.9882999999999997
BaAs2Pd,0.0
BaAs2Pt,0.0
BaAs2Xe5F22,2.6010999999999997
BaAs3,0.0
BaAsAu,0.0
BaAsH3O5,3.9765
BaAsHO4,3.4552
BaAsHO4,3.774
BaAsPd,0.0
BaAsPt,0.0
BaAu,0.0
BaAu2,0.0
BaAu2(SO4)4,1.7852999999999999
BaAu5,0.0
BaAuO2,0.0
BaAuO2,0.9856000000000003
BaAuO3,0.0
BaB2F8,8.0511
BaB2F8,7.8725
BaB2H2O5,4.7844
BaB2S3O13,6.181
BaB4(SbO6)2,3.3759000000000006
BaB4O7,5.1593
BaB4O7,6.4658
BaB6,0.0
BaB8H4O15,5.6377
BaB8O13,5.5451
BaBAsF10,5.0288
BaBAsO5,3.5435999999999996
BaBClF4,5.9817
BaBOF3,5.8892999999999995
BaBPF10,7.2843
BaBPO5,5.503299999999999
BaBPO5,5.495
BaBPd4,0.0
BaBSbS4,2.3423000000000003
BaBe13,0.0
BaBe2(BO3)2,5.3821
BaBe2(BO3)2,5.3488999999999995
BaBe2(PO4)2,5.1229
BaBe2Si2O7,5.2992
BaBe2Si2O7,5.6238
BaBeF4,7.7003
BaBePO4F,6.2166
BaBeSi,0.0
BaBeSiO4,4.4231
BaBi12Mo4WO34,3.0813
BaBi12Mo5O34,3.3118000000000003
BaBi2(B2O5)2,3.3497999999999997
BaBi2(MoO4)4,3.0264000000000006
BaBi2O5,0.0
BaBi3,0.0
BaBi4(BrO3)2,0.0
BaBi4(ClO3)2,0.0
BaBi4O7,2.3709
BaBi5,0.0
BaBi6(PO5)4,3.4275999999999995
BaBiBO4,3.5528000000000004
BaBiBS4,1.9310999999999998
BaBiBrO2,3.0690999999999997
BaBiBrO2,1.6455
BaBiClO2,1.5244
BaBiClO2,3.1773999999999996
BaBiF7,0.366
BaBiIO2,2.7204
BaBiNO5,2.2192999999999996
BaBiO3,0.0
BaBiO3,0.08000000000000007
BaBiSe3,0.7321
BaBr2,4.3731
BaBr3,0.0
BaBrCl,4.4843
BaBrCl,4.9392
BaBrCl,4.9288
BaBrF,4.8824
BaC2,2.1291
BaC2,1.616
BaC2(NO)2,4.5717
BaC2(SN)2,3.9015
BaC2S2(OF)6,6.1552999999999995
BaC4(O2F3)2,4.7469
BaC6,0.0
BaCN2,2.8508
BaCN2,2.246
BaCO3,4.1409
BaCO3,4.4437
BaCO3,4.1754
BaCO3,4.354299999999999
BaCO3,4.3635
BaCO3,3.976
BaCO3,4.397399999999999
BaCO3,4.1594999999999995
BaCO3,4.0966000000000005
BaCO3,4.0287
BaCO3,4.474
BaCSNCl,4.1666
BaCa,0.0
BaCa(BiO2)4,0.9921999999999995
BaCa(CO3)2,4.126200000000001
BaCa(CO3)2,4.7863999999999995
BaCa(CO3)2,4.703
BaCa(CoO2)4,0.04380000000000006
BaCa(Fe12O19)2,1.0236
BaCa(FeO2)4,0.0
BaCa(GaO2)4,3.0678
BaCa(NiO2)4,0.4914999999999998
BaCa(PO3)4,5.7468
BaCa2(PN2)6,4.0725999999999996
BaCa2(SiO3)3,4.5847
BaCa2C2(O3F)2,4.7463999999999995
BaCa2Cu3O5,0.0
BaCa2I6,3.6499000000000006
BaCa2I6,3.1290000000000004
BaCa2I6,3.499
BaCa2I6,3.8624000000000005
BaCa2I6,3.0889
BaCa2I6,3.6691000000000003
BaCa2I6,3.6008000000000004
BaCa2I6,3.1351999999999998
BaCa2I6,3.4812000000000003
BaCa2I6,3.6368000000000005
BaCa2In6O12,1.9489
BaCa2Mg(SiO4)2,4.9948
BaCa2Mg(SiO4)2,4.6943
BaCa2Tm10O18,2.7318999999999996
BaCa2WN4,2.5788999999999995
BaCa2Y6O12,2.8906
BaCa3,0.0
BaCa3O4,2.3350999999999997
BaCa3Si10(N2O)6,3.2698
BaCa3Zr16(PO4)24,4.178100000000001
BaCa4(CoN2)2,0.2914000000000003
BaCa4(CuN2)2,0.21879999999999988
BaCaAgF7,0.5108999999999999
BaCaAl3P2(HO7)2,0.11729999999999974
BaCaAlF7,6.7993999999999994
BaCaB2O5,4.4673
BaCaBO3F,3.8701
BaCaBiF7,4.8837
BaCaBiSbO6,1.9940999999999995
BaCaBiSbO6,1.6858000000000004
BaCaCeFeO6,0.0
BaCaCeGeO6,1.9787000000000003
BaCaCeHfO6,2.1365000000000003
BaCaCeHfO6,2.3768999999999996
BaCaCeHfO6,2.195
BaCaCeNbO6,0.0
BaCaCeNiO6,1.2559999999999998
BaCaCeSnO6,2.1723000000000003
BaCaCeSnO6,2.0629
BaCaCeSnO6,2.2724000000000006
BaCaCeTiO6,2.1876
BaCaCeZrO6,2.1401
BaCaCeZrO6,2.1986
BaCaCeZrO6,2.4204000000000003
BaCaCoF7,2.1235
BaCaCrF7,4.0416
BaCaCrF7,3.8013
BaCaCrSbO6,1.2601
BaCaCrSnO6,0.0
BaCaCuBiO6,0.0
BaCaCuF7,0.8291000000000001
BaCaDyBiO6,1.9085999999999999
BaCaDyBiO6,1.7625000000000002
BaCaDyBiO6,1.7884000000000002
BaCaDyFeO6,0.17230000000000034
BaCaDyNbO6,2.856
BaCaDySbO6,3.3728
BaCaDyVO6,1.6048
BaCaEuBiO6,0.0
BaCaEuNbO6,0.0
BaCaEuSbO6,0.0
BaCaEuWO6,0.5857999999999999
BaCaEuWO6,0.11129999999999995
BaCaEuWO6,0.15559999999999974
BaCaFe2Co2O7,0.0
BaCaFe4O7,1.5647000000000002
BaCaFeBiO6,0.22160000000000002
BaCaFeF7,3.8826
BaCaFeWO6,0.0
BaCaGaBiO6,0.03730000000000011
BaCaGaF7,6.3083
BaCaGdBiO6,1.4407
BaCaGdBiO6,1.5524999999999998
BaCaGdBiO6,1.7010999999999998
BaCaGdNbO6,2.5615999999999994
BaCaGdNbO6,2.8242999999999996
BaCaGdSbO6,3.3444000000000003
BaCaGdSbO6,3.2399
BaCaGdSbO6,3.3061
BaCaGe,0.1812999999999998
BaCaHfNbO6,0.0
BaCaHfSnO6,3.6181999999999994
BaCaHfWO6,0.0
BaCaHfZrO6,3.3163
BaCaI4,2.8129999999999997
BaCaI4,3.2671
BaCaI4,3.3933999999999997
BaCaI4,3.2721999999999998
BaCaI4,3.5645
BaCaI4,2.6456
BaCaI4,2.7146
BaCaI4,3.4982999999999995
BaCaI4,3.9106
BaCaI4,2.7827
BaCaI4,3.0008000000000004
BaCaI4,2.9378
BaCaI4,3.27
BaCaI4,3.6308
BaCaI4,3.2719
BaCaI4,3.4231
BaCaI4,3.2901
BaCaI4,3.7584999999999997
BaCaInBiO6,0.8218999999999999
BaCaInBiO6,0.5144000000000002
BaCaInBiO6,0.0
BaCaInSbO6,0.9295
BaCaLaBiO6,1.9503999999999997
BaCaLaBiO6,1.6524
BaCaLaBiO6,2.2304000000000004
BaCaLaBiO6,1.8574000000000002
BaCaLaBiO6,2.154
BaCaLaSbO6,3.5874000000000006
BaCaLaSbO6,3.2197999999999998
BaCaLaSbO6,3.5067000000000004
BaCaLu2F10,6.8685
BaCaMg14,0.0
BaCaMg30O32,4.0061
BaCaMg30O32,2.6304000000000007
BaCaMg6,0.0
BaCaMn4O8,0.0
BaCaMnF7,1.7915999999999999
BaCaMnSnO6,0.0
BaCaMnWO6,1.8851999999999998
BaCaMoF7,4.6469
BaCaNb4O12,1.3465000000000003
BaCaNbInO6,3.4029
BaCaNbWO6,0.7630999999999997
BaCaNdBiO6,2.0717
BaCaNdBiO6,1.6982
BaCaNdBiO6,1.6265999999999998
BaCaNdFeO6,0.5867
BaCaNdNbO6,2.9859
BaCaNdNbO6,3.0380999999999996
BaCaNdNbO6,2.8393
BaCaNdSbO6,3.486
BaCaNdSbO6,3.2332000000000005
BaCaNdSbO6,3.4966
BaCaNiBiO6,0.0
BaCaNiF7,1.9832
BaCaO2,2.1197999999999997
BaCaO2,2.8163000000000005
BaCaP2(HO4)2,5.327
BaCaP2O7,5.3187
BaCaPb,0.21520000000000028
BaCaPrBiO6,1.6967999999999996
BaCaPrBiO6,2.0949999999999998
BaCaPrBiO6,1.6029
BaCaPrFeO6,0.21919999999999984
BaCaPrSbO6,3.1893999999999996
BaCaPrSbO6,2.9508
BaCaSbF7,4.388999999999999
BaCaSi,0.1767000000000003
BaCaSiO4,4.3673
BaCaSmBiO6,1.6736
BaCaSmBiO6,1.7306
BaCaSmBiO6,2.0601000000000003
BaCaSmFeO6,0.19720000000000004
BaCaSmMnO6,0.0
BaCaSmNbO6,3.0694
BaCaSmNbO6,2.9882
BaCaSmNbO6,2.8486000000000002
BaCaSmSbO6,3.3996999999999997
BaCaSmSbO6,3.2804999999999995
BaCaSmSbO6,3.5056
BaCaSn,0.24370000000000003
BaCaSn3,0.0
BaCaSnF7,0.0
BaCaSnWO6,2.5834999999999995
BaCaSnWO6,2.1807000000000003
BaCaSnWO6,1.9315999999999995
BaCaTbBiO6,1.7212999999999998
BaCaTbBiO6,1.7052999999999998
BaCaTbBiO6,1.9458000000000002
BaCaTbFeO6,0.18009999999999993
BaCaTbNbO6,2.8529999999999998
BaCaTbSbO6,3.3379999999999996
BaCaTbSnO6,0.0
BaCaTbTiO6,0.0
BaCaTi4O12,0.0
BaCaTi4O8,0.0
BaCaTiF7,0.2527999999999997
BaCaV2O7,3.2318000000000002
BaCaV4O8,0.9838
BaCaVF7,2.3947999999999996
BaCaVP2O9,2.3219000000000003
BaCaWF7,3.9032999999999998
BaCaYNbO6,2.8545
BaCaYSbO6,3.375
BaCaYVO6,1.6202999999999999
BaCaZr2O6,3.5587
BaCaZr2O6,3.1767
BaCaZr2O6,3.1207000000000003
BaCaZr8(PO4)12,4.215
BaCaZrNbO6,0.0
BaCaZrSnO6,3.7375000000000003
BaCaZrWO6,0.0
BaCd,0.0
BaCd(PO3)4,4.400399999999999
BaCd11,0.0
BaCd2,0.0
BaCd2Pt,0.0
BaCd3,0.0
BaCd3Ga,0.0
BaCdAs2O7,2.5654
BaCdAsF,0.9586000000000001
BaCdBi2,0.0
BaCdFeF7,3.7965999999999998
BaCdGaF7,4.4668
BaCdGe,0.0
BaCdGeS4,2.6727
BaCdO2,0.9746999999999999
BaCdP2O7,3.5826
BaCdPF,1.1489000000000003
BaCdPb,0.0
BaCdS2,1.7377999999999998
BaCdSb2,0.0
BaCdSbF,0.28969999999999985
BaCdSn,0.0
BaCdSnS4,2.1963999999999997
BaCe(SnS3)2,0.0
BaCe(SnSe3)2,0.0
BaCe2CoS5,0.0
BaCe2EuO6,0.23639999999999972
BaCe2EuO6,0.43869999999999987
BaCe2EuO6,0.0743999999999998
BaCe2FeS5,0.0
BaCe2O4,0.0
BaCe2ZnS5,0.0
BaCeC2O6F,0.19779999999999998
BaCeC2O6F,0.3190999999999997
BaCeEuHfO6,0.0
BaCeEuNbO6,0.0
BaCeEuSbO6,0.0
BaCeEuWO6,0.057000000000000384
BaCeI4,0.0
BaCeInSbO6,0.31049999999999933
BaCeMg14,0.0
BaCeN2,0.6481000000000003
BaCeNbInO6,0.7648000000000001
BaCeNbInO6,0.40420000000000034
BaCeO3,2.2207000000000003
BaCeO3,2.2112
BaCeO3,2.2108000000000003
BaCeO3,2.2990000000000004
BaCl2,5.1132
BaCl2,4.5724
BaCl2,5.4291
BaClF,5.4317
BaCo(SeO3)2,2.9010000000000002
BaCo2(AsO4)2,0.0
BaCo2(AsO4)2,0.8420999999999998
BaCo2(PO4)2,3.1084
BaCo2(PO4)2,2.2840999999999996
BaCo2(PO4)2,0.0
BaCo2(PO4)2,2.0871999999999997
BaCo2P2H2O9,1.2309
BaCo2Si2O7,0.04479999999999995
BaCo2Sn4O11,0.0
BaCoAs2O7,1.3273
BaCoBP2HO9,2.5883000000000003
BaCoCu3Se4,0.0
BaCoF4,0.0
BaCoH2C3ClO8,0.2252
BaCoN,0.02619999999999978
BaCoN2,0.0
BaCoO2,0.39670000000000005
BaCoO3,1.1424000000000003
BaCoO3,0.0
BaCoP2O7,2.4181999999999997
BaCoS2,0.0
BaCoSO,0.0
BaCoSiO4,0.7367000000000004
BaCr(Si2O5)2,3.2289
BaCr10O15,0.0
BaCr2(P2O7)2,3.1307
BaCr2(RuO3)4,0.0
BaTm2CoO5,1.3129999999999997
BaTm2CuO5,0.0
BaTm2F8,7.2347
BaTm2NiO5,2.1841
BaTm2NiO5,1.5393
BaTm2O4,2.8878999999999997
BaTm2O4,3.2296999999999993
BaTm2O4,4.0104
BaTm2ZnO5,3.0578000000000003
BaTmCo4O7,0.11870000000000003
BaTmCo4O7,0.9211
BaTmFe4O7,0.0
BaTmFeCuO5,0.0
BaTmO3,0.0
BaU(PS4)2,0.0
BaU(SiO4)2,2.3906
BaU11(GeO19)2,1.6020999999999996
BaU2I2O13,0.5110000000000001
BaU2O7,1.8593000000000002
BaU2S5,0.0
BaU2Se5,0.0
BaU2Te5,0.0
BaU2V2O12,1.9806999999999997
BaUI6,0.23649999999999993
BaUO3,0.0
BaUO4,2.1144
BaUPO6F,2.1124
BaUS3,0.0
BaUTe4,0.0
BaUTe6,0.1816999999999993
BaUTiO6,1.6853000000000002
BaV(AsO4)2,0.9488999999999996
BaV10O15,0.6186999999999996
BaV10O17,0.6250999999999998
BaV13O18,0.3463000000000003
BaV13O18,0.0
BaV13O18,0.23650000000000038
BaV2(AsO5)2,2.1662999999999997
BaV2(CoO4)2,0.0
BaV2(CuO4)2,0.1615000000000002
BaV2(NiO4)2,0.016199999999999992
BaV2(P2O7)2,1.5741
BaV2(P2O7)2,2.0462
BaV2(PO5)2,1.9897000000000002
BaV2CdO7,2.7548
BaV2Cu(AgO4)2,0.0
BaV2Cu3(HO5)2,0.0
BaV2CuO7,0.8088
BaV2H2(Se2O7)2,2.4246
BaV2H2Se2O11,1.7073
BaV2Ni3(HO5)2,2.5875999999999997
BaV2O6,2.6466000000000003
BaV2P2(H4O7)2,2.4038
BaV2P4O17,0.41100000000000003
BaV2SeO8,2.0881000000000003
BaV2TeO8,2.5124000000000004
BaV2ZnO7,2.9463000000000004
BaV2ZnO7,3.0584
BaV3O8,1.6101
BaV4As4O19,1.5368000000000002
BaV4O9,0.8127000000000004
BaV6O11,0.4209999999999994
BaV6O11,0.0
BaV8O16,0.0
BaV8O21,1.0306000000000002
BaVAsO6,2.6697
BaVCdF7,2.5315
BaVCdP2O9,2.4525
BaVClO3,2.3925
BaVCu4P4O17,0.005599999999999827
BaVInWO6,0.0
BaVN2,0.15219999999999967
BaVO3,0.0
BaVOF4,2.7946
BaVOF4,2.4970999999999997
BaVP2(H2O5)2,2.3594000000000004
BaVPO6,2.173
BaVS3,0.0
BaVSe2S,0.0
BaVSe3,0.0
BaVSeS2,0.0
BaVSi2O7,2.8032
BaVSi2O7,2.2626
BaVZnF7,2.3922
BaVZnP2O9,2.3917
BaWF7,3.276
BaWN3,1.2852000000000001
BaWN3,1.0937999999999999
BaWO3,0.0
BaWO4,4.7088
BaWO4,4.5873
BaWO4,4.8822
BaWO4,3.4079000000000006
BaWO4,2.083
BaWO4,2.7897
BaWO4,4.7587
BaY(CoO2)4,0.6661000000000001
BaY2(MoO4)4,3.3185
BaY2Br8,3.8963
BaY2Cl8,4.8824000000000005
BaY2CoO5,1.6802999999999995
BaY2CuO5,0.0
BaY2F8,6.276
BaY2F8,6.9301
BaY2F8,6.8177
BaY2NiO5,2.3002999999999996
BaY2O4,3.2515
BaY2PdO5,1.7879999999999998
BaY2Si2O7F2,5.0182
BaY2Si3O10,4.8161000000000005
BaY2ZnO5,3.0989
BaY3Br11,3.0403000000000002
BaY3Cl11,3.9459
BaY3Cl11,3.4227999999999996
BaY3F11,6.8698
BaY3F11,6.1381000000000006
BaY3F11,5.8515
BaY4Cl14,4.0974
BaY4Si5O17,4.8104
BaY6Si3B6(O12F)2,5.2315000000000005
BaYAgSe3,1.3282000000000003
BaYAgTe3,0.7675000000000001
BaYBr5,3.5426
BaYBr5,2.8388
BaYBr5,3.5275
BaYBr5,3.5372
BaYBr5,3.8042000000000002
BaYCl5,4.3254
BaYCl5,3.8316999999999997
BaYCl5,4.503
BaYCo2O5,0.0
BaYCo4O7,0.0
BaYCo4O7,0.7462
BaYCoCuO5,0.0
BaYCoCuO5,0.38759999999999994
BaYCu2O5,0.0
BaYCu4O7,0.0
BaYCuAgO5,0.0
BaYCuBiO5,0.0
BaYCuNiO5,0.0
BaYCuS3,1.1779000000000002
BaYCuSe3,0.9653
BaYCuSnO5,0.0
BaYCuTe3,0.5313999999999997
BaYF5,6.451300000000001
BaYF5,6.862
BaYF5,7.0045
BaYF5,6.618500000000001
BaYF5,6.908099999999999
BaYF5,6.8294999999999995
BaYF5,6.895099999999999
BaYF5,6.6724000000000006
BaYF5,6.6784
BaYF5,6.5296
BaYF5,6.4525
BaYF5,6.661499999999999
BaYFe2O5,0.0
BaYFe2O5,0.46599999999999975
BaYFe4O7,1.4460000000000002
BaYFe4O7,0.0
BaYFeCuO5,0.0
BaYFeO4,1.7746
BaYI5,2.5677000000000003
BaYI5,2.7805
BaYI5,2.1035
BaYI5,2.3773
BaYI5,2.9223000000000003
BaYI5,2.5475
BaYInWO6,1.2985999999999995
BaYInWO6,1.6116000000000001
BaYMg14,0.0
BaYMg30O32,0.3509000000000011
BaYMg30O32,0.3551000000000002
BaYMg6,0.0
BaYMgCu2O5,0.21220000000000017
BaYMn2O5,0.0
BaYMn2O5,1.2046000000000001
BaYMn2O6,0.0
BaYMn4O7,0.0
BaYMnCoO5,0.0
BaYMnCoO5,0.1871000000000005
BaYMnCoO5,0.9489000000000001
BaYMnCoO5,0.21750000000000025
BaYMnCoO5,0.20539999999999958
BaYMnCuO5,0.0
BaYNbSnO6,2.4438999999999997
BaYNbSnO6,1.7801999999999998
BaYNbSnO6,2.0256000000000003
BaYNi4O7,0.0
BaYSi4N7,2.7326999999999995
BaYSnSbO6,2.6432
BaYSnSbO6,2.4839
BaYSnSbO6,2.3399
BaYTi4O7,0.0
BaYTiCuO5,0.0
BaYZn3CoO7,0.0
BaYZn3GaO7,2.2037
BaZn,0.0
BaZn(CuO2)4,0.0
BaZn(FeO2)4,0.0
BaZn(SeO3)2,3.7891000000000004
BaZn(SeO3)2,0.6963000000000001
BaZn13,0.0
BaZn2,0.0
BaZn2(AsO4)2,2.9793
BaZn2(BO3)2,3.2287
BaZn2(PO4)2,4.0373
BaZn2As3HO11,2.3183000000000002
BaZn2Cu2As3,0.0
BaZn2H16O11,3.5073
BaZn2Si2O7,3.2486
BaZn2Si2O7,3.3032000000000004
BaZn3P4(H7O9)2,0.0
BaZn5,0.0
BaZnAgF7,0.38270000000000004
BaZnAs2O7,2.7921
BaZnAsF,0.24709999999999965
BaZnBO3F,3.6218
BaZnBi2,0.0
BaZnBiF7,5.1549
BaZnCO3F2,4.7744
BaZnCl4,4.6302
BaZnCl4,4.5948
BaZnCoF7,1.6673
BaZnCrF7,3.7428999999999997
BaZnCuF7,0.5794999999999999
BaZnF4,4.8083
BaZnF4,4.5489
BaZnFe6O11,1.0812
BaZnFeF7,3.9328000000000003
BaZnGe,0.0
BaZnGeO4,2.8891
BaZnIn3,0.0
BaZnMoF7,3.8422000000000005
BaZnNiF7,1.0963
BaZnO2,2.2724
BaZnO3,0.0
BaZnP2O7,4.3419
BaZnPb,0.0
BaZnRu5O11,0.0
BaZnSO,2.2367
BaZnSb2,0.0
BaZnSbF7,4.3858
BaZnSi,0.0
BaZnSiO4,3.5871000000000004
BaZnSn,0.0
BaZnSn2,0.0
BaZnSnF7,0.0
BaZnSnS4,2.2710999999999997
BaZnTe2O7,1.6684
BaZnTeCl2O3,3.7598
BaZnWF7,3.1929
BaZr(AsO4)2,3.5173
BaZr(BO3)2,4.1173
BaZr(PO4)2,4.158799999999999
BaZr(PO4)2,3.8199
BaZr(SiO3)3,4.6556
BaZr2F10,5.756399999999999
BaZr2SnO6,2.6872000000000003
BaZr2SnO6,3.0109999999999997
BaZr2SnO6,2.6268000000000002
BaZr2SnO6,2.9585000000000004
BaZr2Ti3Pb4O15,2.2403999999999997
BaZr4(PO4)6,4.0386
BaZr5Pb4O15,2.9226000000000005
BaZrF6,5.8986
BaZrF6,5.927300000000001
BaZrInSbO6,0.7056999999999993
BaZrN2,0.9972000000000003
BaZrNbInO6,0.6060999999999996
BaZrO3,3.1163
BaZrO3,3.0377
BaZrS3,0.9900000000000002
BaZrSe3,0.0
BaZrSe3,0.2023999999999999
BaZrSe3,0.3725999999999998
BaZrTiInO6,0.0
BaZrTiPbO6,1.5482
Be,0.0
Be(B3H7)2,4.3149999999999995
Be(B3H8)2,6.2485
Be(B3H8)2,3.5394
Be(B6C)2,0.0
Be(BC)2,0.2171000000000003
Be(BH4)2,6.190300000000001
Be(BO2)4,0.0
Be(Bi3O5)4,0.0
Be(CoO2)2,0.0
Be(FeO2)2,1.8397000000000001
Be(FeO2)2,1.8641999999999999
Be(GaO2)2,2.6235
Be(GaO2)2,2.7475
Be(GaO2)2,2.8899
Be(H2N)2,3.3217
Be(HO)2,4.0122
Be(HO)2,5.1311
Be(HO)2,5.4571
Be(HO)2,5.7156
Be(N3O7)2,1.2847
Be(PN2)2,3.6594000000000007
Be(PO3)2,6.0367999999999995
Be(PO3)2,5.8495
Be10Ru3,0.0
Be12Ag,0.0
Be12Al8Si24O73,0.48870000000000013
Be12Au,0.0
Be12Co,0.0
Be12Cr,0.0
Be12Fe,0.0
Be12Mo,0.0
Be12Nb,0.0
Be12Pd,0.0
Be12Pt,0.0
Be12V,0.0
Be12W,0.0
Be13Sb,0.0
Be15(Nb3Cu4)2,0.0
Be15(Nb3Ni4)2,0.0
Be17Nb2,0.0
Be17Os3,0.0
Be17Ru3,0.0
Be22Mo,0.0
Be22Re,0.0
Be22W,0.0
Be2Ag,0.0
Be2As(HO)9,4.4006
Be2AsH5O7,4.3533
Be2B,0.0
Be2BH3O5,5.6645
Be2BH3O5,5.6261
Be2BH3O5,5.9569
Be2BHO4,6.1491
Be2BO3F,6.462899999999999
Be2BO4,0.1268
Be2C,1.1636999999999995
Be2Co(NF7)2,0.6629999999999998
Be2Co(NF7)2,1.3088000000000002
Be2CoH20N2(O3F4)2,3.3035
Be2CoIr,0.0
Be2CoNi,0.0
Be2CoPt,0.0
Be2CoSi,0.0
Be2Cr,0.0
Be2Cu,0.0
Be2CuIr,0.0
Be2CuPt,0.0
Be2CuRh,0.0
Be2CuRu,0.0
Be2Fe,0.0
Be2GeO4,3.9902999999999995
Be2IrPd,0.0
Be2IrPt,0.0
Be2IrRu,0.0
Be2Mo,0.0
Be2Nb,0.0
Be2Nb3,0.0
Be2NiH20N2(O3F4)2,4.9841
Be2NiIr,0.0
Be2NiPt,0.0
Be2NiRh,0.0
Be2NiRu,0.0
Be2P2O7,5.4393
Be2P2O7,5.9358
Be2P2O7,5.592899999999999
Be2P2PbO8,4.5437
Be2PH5O7,5.2189
Be2PdPt,0.0
Be2PdRh,0.0
Be2PtRh,0.0
Be2Re,0.0
Be2RhAu,0.0
Be2Ru,0.0
Be2RuAu,0.0
Be2RuPt,0.0
Be2SiO4,6.042000000000001
Be2Te7Cl6,1.3852000000000002
Be2Tl2Cu(O3F4)2,0.2801
Be2Tl2Zn(O3F4)2,0.0
Be2TlF5,4.6157
Be2TlF5,4.8864
Be2V,0.0
Be2W,0.0
Be3Ag4P3BrO12,2.5182
Be3Al2(SiO3)6,5.319500000000001
Be3Al2Si6HO18,4.806900000000001
Be3Al2Si6O19,0.8145
Be3As2(H2O5)2,4.0565999999999995
Be3As2H10(NO5)2,4.0846
Be3Bi(RhO2)9,0.4140000000000006
Be3Cd4Si3SO12,0.9984000000000002
Be3Cd4Si3SeO12,3.0777
Be3Cd4Si3TeO12,3.125
Be3Co,0.0
Be3Cr2(SiO4)3,1.8222
Be3Cu,0.0
Be3Cu2(SiO4)3,0.0
Be3Fe,0.0
Be3Fe2(SiO4)3,1.2342
Be3Fe4Si3SO12,0.0
Be3Fe4Si3SO12,3.4070000000000005
Be3Fe4Si3SeO12,3.1008000000000004
Be3Fe4Si3TeO12,3.2723
Be3Fe4Si3TeO12,3.2469000000000006
Be3H42N13(ClO)3,4.2986
Be3Ir,0.0
Be3N2,2.7644
Be3N2,3.3145000000000007
Be3N2,3.3283999999999994
Be3Nb,0.0
Be3Ni,0.0
Be3P2,0.2102000000000004
Be3P2,0.14529999999999976
Be3P2,0.8891
Be3P2(H2O5)2,5.8582
Be3Pd,0.0
Be3Rh,0.0
Be3Ru,0.0
Be3Si3(AgO6)2,0.0
Be3Si3(BiO6)2,3.3148
Be3Si3(MoO6)2,3.8074000000000003
Be3Si3(NiO6)2,0.0
Be3Si3(SbO6)2,2.6156
Be3Si3(SnO6)2,1.2203
Be3Si3(SnO6)2,2.3258
Be3Si3(WO6)2,3.6664999999999996
Be3SiO6,0.4385
Be3Tc,0.0
Be3Tl2Cd2F12,5.2994
Be3Tl2Co2F12,0.0
Be3Tl2Ni2F12,5.4318
Be3Tl2Zn2F12,5.4725
Be3V2(SiO4)3,1.6241999999999996