formula,band_gap
CsAs4F13,5.2661999999999995
CsAsF4,4.6128
CsAsF6,5.2216
CsAsH6(CSe)2,2.2104
CsAsO3,2.2116000000000002
CsAsO3,2.6306
CsAsOF4,3.7471000000000005
CsAsSe2,1.4159
CsAsSe2,1.6394
CsAu,1.0232999999999999
CsAu(IO3)4,2.0493
CsAu(IO3)4,1.9344999999999999
CsAu(SO4)2,1.5932
CsAu(SO4)2,1.3503
CsAu2F7,1.7961999999999998
CsAu3S2,2.3501
CsAu3Se2,2.1741
CsAuBr3,0.0
CsAuBr3,0.653
CsAuCl3,0.0
CsAuCl3,0.8112
CsAuCl4,1.8897
CsAuF3,0.0
CsAuF4,2.4471999999999996
CsAuI3,0.7337
CsAuO,1.3835
CsAuO2,1.5219000000000003
CsAuS,1.8832
CsAuSe,1.7093
CsAuSe3,1.1919000000000002
CsB10H13C,4.842499999999999
CsB2H5O6,5.0602
CsB2P2HO9,5.827
CsB3H8,5.973
CsB3H8,5.957599999999999
CsB3O5,5.304
CsB3PbF12,6.2981
CsB5(H2O3)4,5.8357
CsB5(H2O3)4,5.6249
CsB5O8,5.9528
CsB5O8,5.449
CsB5O8,6.2049
CsB5O8,5.9417
CsB6(H5N)3,4.5834
CsB9H14,3.8007
CsB9O13,3.1242
CsB9O14,5.4514
CsBF4,7.6306
CsBH4,5.7194
CsBO2,3.8457000000000003
CsBPb(IF2)2,2.7223
CsBS2,2.8051
CsBS3O11,5.643800000000001
CsBSe3,1.7167000000000001
CsBa(BO2)3,4.0415
CsBa2Br5,4.3948
CsBa2Co2F9,1.495
CsBa2Cr2F11,3.2847999999999997
CsBa2MgNb3O10,0.0
CsBa2Nb3O10,1.4077000000000002
CsBa2Ni2F9,4.5784
CsBa2SnS4Cl,2.5536999999999996
CsBa2Zn2F9,4.8824
CsBa3,0.0
CsBa3Ga5(Se5Cl)2,2.2057
CsBaCr3F12,2.8965
CsBaI3,3.6259
CsBaIn2(PO4)3,3.5777000000000005
CsBaLiP2O7,4.8877999999999995
CsBaPS4,2.4125000000000005
CsBaSiHO4,3.9698
CsBaVS4,1.3334
CsBe2BO3F2,5.8834
CsBe2F5,7.3740000000000006
CsBe2P2HO8,5.5956
CsBe4(BO3)3,4.9398
CsBe4Al4(B3O7)4,0.06400000000000006
CsBeAsO4,3.9888
CsBeF3,6.1183
CsBeH3,3.3661000000000003
CsBePO4,5.3448
CsBi,0.24520000000000008
CsBi(MoO4)2,2.8514
CsBi2,0.0
CsBi2Br7,2.8535
CsBi3S5,1.4278999999999997
CsBi3Se5,0.9987999999999997
CsBi4Se7,0.6571000000000002
CsBiF6,2.8234
CsBiO2,2.3186999999999998
CsBiO3,0.0
CsBiS2,1.5773
CsBiSe2,0.9529999999999998
CsBr,4.2392
CsBr,4.2575
CsBr2F,1.7763
CsBr2F7,2.5583
CsBr3,2.2214
CsBrF,2.5061999999999998
CsBrF4,3.2843999999999998
CsBrF6,3.9858
CsBrO3,4.1681
CsBrO4,3.0454
CsC(OF)2,0.8099999999999999
CsC2N3,4.0656
CsC8,0.0
CsCN,4.9663
CsCN,4.9418
CsCNO,4.5353
CsCO2,4.1556999999999995
CsCOF3,6.1248000000000005
CsCS(OF)3,5.6075
CsCSN,4.3764
CsCa(NO2)3,2.6181
CsCa(PO3)3,5.3035
CsCa(SeO4)3,0.0
CsCa10(PO4)7,5.2034
CsCa2Nb3O10,2.0693
CsCa2Ta3O10,2.1798
CsCaBr3,4.3923
CsCaCO3F,4.5255
CsCaCl3,5.3473
CsCaCl3,5.3331
CsCaCl3,5.3402
CsCaF3,6.9005
CsCaH2N9O,4.0792
CsCaH3,3.1408
CsCaI3,3.9817
CsCaI3,3.7149
CsCaI3,3.6642
CsCaP3(HO5)2,5.1519
CsCaTa6Cl18,0.16159999999999997
CsCd(NO2)3,2.4366
CsCd(PO3)3,4.316
CsCd13,0.0
CsCd4As3,0.21980000000000022
CsCdAuS2,2.0699
CsCdBO3,1.6461999999999999
CsCdBr3,2.9010000000000002
CsCdBr3,0.6968000000000001
CsCdCl3,1.7462
CsCdCl3,2.4918
CsCdF3,3.2859
CsCdInTe3,1.2066000000000001
CsCe(PO3)4,0.19819999999999993
CsCeCdSe3,0.01839999999999975
CsCeCuS3,0.6972
CsCeF5,2.2534
CsCeHgSe3,0.0
CsCeMg14,0.0
CsCeMg30O32,0.44120000000000026
CsCeMg30O32,0.39060000000000006
CsCeS2,0.0
CsCeSiS4,0.022500000000000853
CsCeSiSe4,0.2913000000000001
CsCl,4.9883999999999995
CsCl,4.8482
CsClO3,5.3706000000000005
CsClO3,5.465800000000001
CsClO3,5.377
CsClO4,5.444000000000001
CsClO4,5.3228
CsClO4,6.0296
CsCoCl3,0.0
CsCoCuF6,0.0
CsCoCuS2,0.0
CsCoF3,0.0
CsCoF4,0.3388
CsCoH24(C7N4)2,4.2725
CsCoH24(SO10)2,2.1475
CsCoN,0.0
CsCoNiF6,1.4981
CsCoO2,0.0
CsCoO2,0.6383999999999999
CsCoO2,0.4868000000000001
CsCoO2,0.8512999999999997
CsCoPO4,3.0972000000000004
CsCoPO4,3.0688000000000004
CsCoPO4,3.146
CsCoW(OF)3,1.7871000000000001
CsCr(MoO4)2,3.1264
CsCr(SO4)2,2.7386000000000004
CsCr3O8,1.6758000000000002
CsCr5S8,0.40139999999999976
CsCr5S8,0.3078000000000003
CsCr5Se8,0.010499999999999954
CsCr5Te8,0.0
CsCrAs2O7,2.5017
CsCrBr3,0.0
CsCrCl3,0.16819999999999968
CsCrCl3,0.0
CsCrClO3,2.8096
CsCrCoF6,2.2148000000000003
CsCrCuF6,0.0
CsCrF4,2.8606
CsCrFeF6,0.0
CsCrH24(SO10)2,6.4559
CsCrH24(SeO10)2,3.957
CsCrI3,0.0
CsCrNiF6,3.2021
CsCrO3F,2.8472
CsCrP2O7,2.6765999999999996
CsCrP2S7,1.0727000000000002
CsCu(BiS2)2,0.6050999999999997
CsCu2AsS3,1.3532000000000002
CsCu2Br3,1.4959
CsCu2Cl3,1.8298999999999999
CsCu2F5,0.0
CsCu2F6,0.0
CsCu2I3,1.8996000000000004
CsCu2ICl2,2.0373000000000006
CsCu3As8H24C8(IO2)4,2.5000999999999998
CsCu3O2,1.4572
CsCu3S2,1.6845999999999999
CsCu4S3,0.0
CsCu4Se3,0.0
CsCu5S3,0.7810999999999995
CsCu5S3,0.3266
CsCuBr3,0.0
CsCuCl3,0.5494
CsCuCl3,0.5123
CsCuCl3,0.0
CsCuF4,1.5436
CsCuNiF6,0.0
CsCuO,0.5807000000000002
CsCuO2,0.9672000000000001
CsCuP3H8O13,0.788
CsCuPS3,2.1498
CsCuPSe3,1.3477000000000001
CsCuRhF6,0.0
CsCuS4,1.565
CsCuS6,1.0787
CsCuSe4,1.1049
CsCuTeS3,1.8105
CsDy(MoO4)2,3.602
CsDy(WO4)2,3.4395
CsDy2Ag3Te5,1.0728000000000004
CsDy2Cl7,4.5573999999999995
CsDy2Cu3S5,1.4902000000000006
CsDy2Cu3Se5,1.1878000000000002
CsDyBr3,0.0
CsDyCdSe3,2.0718
CsDyCdTe3,1.5476
CsDyI3,0.0
CsDyO2,2.835
CsDyS2,2.1424000000000003
CsDyS2,2.2244
CsDySiS4,2.9318999999999997
CsDyZnSe3,2.1540999999999997
CsDyZnTe3,1.3714000000000004
CsEr(MoO4)2,3.5742000000000003
CsEr(MoO4)2,3.6323999999999996
CsEr(MoO4)2,4.0123999999999995
CsEr(MoO4)2,3.0014000000000003
CsEr(NbBr3)6,0.6951
CsEr(PO3)4,5.5882
CsEr(TaBr3)6,1.0564
CsEr(WO4)2,4.7027
CsEr(WO4)2,3.3334
CsEr10(C2I9)2,0.2905000000000002
CsEr13(CoI12)2,0.5263
CsEr2Ag3Te5,1.1873
CsEr2Cl7,4.5883
CsEr2Cu3S5,1.5316999999999998
CsEr2Cu3Se5,1.2246000000000001
CsEr2Cu3Se5,1.3011
CsEr3Se5,1.5437999999999998
CsEr6CI12,0.21999999999999975
CsErCdTe3,1.5492
CsErMnSe3,0.5140000000000002
CsErO2,2.8015000000000003
CsErP2O7,5.1711
CsErS2,2.1441
CsErSiS4,2.9570000000000003
CsErTa6Cl18,1.3425000000000002
CsErZnSe3,2.1566
CsErZnTe3,1.3864999999999998
CsEu(MoO4)2,0.0
CsEu(PO3)4,0.0
CsEu(WO4)2,0.0
CsEu2I5,1.1865999999999999
CsEuAsS3,0.5358000000000005
CsEuBr3,0.9373999999999998
CsEuCl3,0.6374
CsEuCl3,0.0
CsEuF3,0.0
CsEuPO4,1.0284000000000004
CsEuS2,0.0
CsEuSiS4,0.0
CsF,5.2626
CsF,5.938
CsFe(MoO4)2,2.5380000000000003
CsFe(MoO4)2,2.3737
CsFe(SO4)2,2.6754000000000002
CsFe(SeO4)2,2.2281
CsFe2F6,0.0
CsFe2P5O16,0.5105999999999999
CsFe2S3,0.0
CsFe2Se3,0.0
CsFe2Te3,0.0
CsFe3P3O14,0.5692999999999999
CsFe4As3,0.0
CsFe5(MoO4)7,1.2707000000000002
CsFeAgF6,0.0
CsFeBP2HO9,0.9450000000000001
CsFeBP3O11,2.452
CsFeBr3,0.0
CsFeBr4,1.0776000000000001
CsFeCl3,0.0
CsFeCl4,1.3293
CsFeCoF6,1.828
CsFeCuF6,0.0
CsFeCuS2,0.0
CsFeF3,3.4246999999999996
CsFeF4,0.0
CsFeH24(SO10)2,5.6396
CsFeH24(SeO10)2,2.9044999999999996
CsFeH4Cl3O2,3.8219000000000003
CsFeI4,0.46940000000000004
CsFeN,0.0
CsFeNiF6,2.6205
CsFeO2,1.9760000000000002
CsFeO2,1.9751999999999998
CsFeP(H6O5)2,4.6479
CsFeP2H3CO10,2.6647
CsFeP2O7,2.1304
CsFeS2,0.0
CsFeSiO4,2.8421000000000003
CsGa(PO3)4,4.318300000000001
CsGa(SO4)2,4.001
CsGa(SeO3)2,3.5463
CsGa2Au3,0.0
CsGa2P5O16,4.4388000000000005
CsGa3,0.0
CsGa3S5,2.6534000000000004
CsGa5(HgSe3)4,0.8074999999999999
CsGa7,0.0
CsGa9Au5,0.0
CsGaAgF6,0.37070000000000003
CsGaAs3H5O12,3.2598000000000003
CsGaBP2HO9,4.6544
CsGaBr4,3.3514
CsGaCl4,4.491
CsGaCuF6,0.0
CsGaH24(SO10)2,5.2373
CsGaH4,4.8788
CsGaH4,4.6071
CsGaH6(CF)2,4.2064
CsGaNiF6,4.4905
CsGaO2,2.7962
CsGaO2,2.9834000000000005
CsGaP3HO10,4.8914
CsGaP3HO10,4.6119
CsGaP3HO10,4.900499999999999
CsGaS2,3.0626
CsGaS3,2.4313000000000002
CsGaSe3,1.6041
CsGaTe2,1.2835
CsGd(CO3)2,2.7428999999999997
CsGd(MoO4)2,3.1586000000000003
CsGd(MoO4)2,2.9427999999999996
CsGd(MoO4)2,3.0820000000000003
CsGd(PO3)4,3.4182999999999995
CsGd(WO4)2,3.0973000000000006
CsGd2Ag3Se5,0.0
CsGd2Ag3Te5,0.6225999999999998
CsGd2Cl7,2.6212999999999997
CsGd2Cu3Se5,0.8936999999999999
CsGdCdTe3,0.8502999999999998
CsGdHgSe3,0.0
CsGdO2,2.4891
CsGdS2,1.8329
CsGdSiS4,1.749
CsGdTe4,0.08389999999999986
CsGdZnTe3,0.8742999999999999
CsGe,0.0
CsGe,1.3329
CsGe,1.2151999999999998
CsGeB3O7,4.5981
CsGeBiS4,1.7889
CsGeBr3,0.7856000000000001
CsGeBr3,0.7606999999999999
CsGeBr3,1.4434000000000002
CsGeCl3,2.1534999999999997
CsGeI3,0.9905000000000002
CsGeI3,1.1901
CsGeSbO5,1.6920000000000002
CsH,2.3475
CsH,2.5693
CsH(CO2)2,2.7451
CsH24Rh(SO10)2,2.8625
CsH24Ru(SO10)2,0.41859999999999997
CsH2CN5,4.0637
CsH2CO3,3.4219999999999997
CsH2F3,7.0151
CsH2SNO3,5.1346
CsH2SNO3,4.8628
CsH3(SO4)2,5.6517
CsH3(SeO3)2,4.1517
CsH3(SeO4)2,3.3949
CsH3(SeO4)2,3.6551
CsH3AuN,0.8861
CsH3CN2O,4.2295
CsH3O2,4.7105
CsH3O2,4.0949
CsH4CN3,3.6774000000000004
CsH4NF2,5.7447
CsH4NO,3.6993
CsH5N2,2.1609999999999996
CsH5N2,2.0856
CsH5O3,4.5517
CsH5S2(NO3)2,4.9117
CsH7(C2O5)2,3.2358000000000002
CsH7O4,4.5579
CsHCO2,4.4195
CsHCO3,4.5588
CsHCO3,4.9478
CsHF2,6.2979
CsHF2,6.5123
CsHIF7,4.6043
CsHO,3.4329
CsHO,3.1721000000000004
CsHPt2(SO4)4,0.7178
CsHS,3.4010999999999996
CsHS2(O3F)2,5.6738
CsHS2O7,5.3167
CsHSO2,3.8412
CsHSO3,5.842700000000001
CsHSO4,5.3412
CsHSO4,5.2874
CsHSO4,5.564399999999999
CsHSeO4,3.6444
CsHf2Br9,3.1146
CsHf6CCl15,1.2179
CsHfCu3Se4,1.3728
CsHfMg30O31,0.0
CsHfMg30O31,0.059800000000000963
CsHfMg30O31,0.4504999999999999
CsHg,0.0
CsHg2,0.0
CsHg2Br5,1.9907
CsHg3,0.0
CsHg5Cl11,2.8387000000000002
CsHg5Cl11,2.7001999999999997
CsHgBr2Cl,0.0
CsHgBr3,1.9018
CsHgBr3,0.0
CsHgBrCl2,0.0
CsHgC3(SN)3,2.6031
CsHgCl3,0.9505
CsHgCl3,0.0
CsHgCl3,1.9882
CsHgCl3,2.0663
CsHgF3,0.7228
CsHgSbSe3,1.0746000000000002
CsHo(MoO4)2,3.0516000000000005
CsHo(MoO4)2,3.5408999999999997
CsHo(MoO4)2,3.6087000000000002
CsHo(NbBr3)6,0.9589000000000001
CsHo(WO4)2,3.4351000000000003
CsHo2Ag3Te5,1.1763
CsHo2Cl7,4.571
CsHo2Cu3Se5,1.2785000000000002
CsHo2Cu3Se5,1.2913999999999999
CsHo3Te5,0.8433999999999999
CsHoCdTe3,1.5467999999999997
CsHoCoSe3,0.0
CsHoMnSe3,0.5124
CsHoO2,2.8143
CsHoS2,2.2237
CsHoS2,2.1354
CsHoSiS4,2.9111000000000002
CsHoZnSe3,2.1295
CsHoZnTe3,1.3765
CsI,3.6776000000000004
CsI,3.8727
CsI,3.1234
CsI,3.8796999999999997
CsI,3.8556
CsI2Br,1.9762
CsI3,1.9163999999999999
CsI3F16,4.2435
CsI4,1.7836
CsICl2,2.2301
CsIO3,3.0911999999999997
CsIO4,2.5553
CsIOF4,4.9513
CsIn(Cu3O4)2,0.0
CsIn(MoO4)2,3.6885999999999997
CsIn(PO3)4,4.452999999999999
CsIn3,0.0
CsIn3H6(Se3O10)2,3.563
CsIn3O5,1.4700000000000002
CsIn5S8,1.2724999999999995
CsInAgF6,0.0
CsInBr3,1.3782
CsInBr3,0.0
CsInCl3,1.7756999999999998
CsInCu(PO3)6,0.5897999999999999
CsInCuF6,0.0
CsInF3,3.0608999999999997
CsInF3,0.0
CsInHgS3,1.3790000000000002
CsInI3,0.056499999999999995
CsInI3,0.0
CsInI3,1.4545000000000001
CsInI4,2.2731
CsInO2,1.9381
CsInP2O7,3.7897
CsInS2,2.1704
CsInSe2,1.6302
CsInTe2,1.3522000000000003
CsInTe3O8,3.066
CsK,0.0
CsK(ClO4)2,5.5306999999999995
CsK(Fe2S3)2,0.0
CsK2,0.0
CsK2AlBr6,3.2978
CsK2AlCl6,4.3064
CsK2AlF6,5.617900000000001
CsK2AlI6,2.1419
CsK2As,0.7081999999999999
CsK2AsBr6,2.9226
CsK2AsCl6,3.4978
CsK2AsF6,3.5457
CsK2AuF6,0.6961999999999999
CsK2AuO2,2.1843
CsK2Bi,0.30099999999999993
CsK2BiCl6,3.9160000000000004
CsK2CoO2,1.6757999999999997
CsK2Fe3P4ClO14,3.7684000000000006
CsK2GaCl6,3.6673
CsK2GaF6,5.3211
CsK2Ho(PO4)2,4.8718
CsK2InCl6,3.7817
CsK2InF6,4.7905
CsK2IrF6,2.0176999999999996
CsK2LaV2O8,3.7121000000000004
CsK2Mn3P4ClO14,3.6100000000000003
CsK2MoF6,2.8022
CsK2NbF6,0.0
CsK2PdF5,1.8660999999999999
CsK2PdF6,0.0
CsK2Pt,0.0
CsK2Rb,0.0
CsK2RuF6,1.6600000000000001
CsK2Sb,0.8633999999999997
CsK2SbCl6,3.1654
CsK2SbF6,3.1372
CsK2Sc(PO4)2,4.0983
CsK2ScCl6,4.0703
CsK2ScF6,5.6381
CsK2TiF6,0.0
CsK2TlF6,3.5839999999999996
CsK2VF6,0.0
CsK2YF6,5.2336
CsK3,0.0
CsK4GaO4,2.2621
CsK4TlO4,1.5380999999999998
CsK5Ru2O9,0.10209999999999986
CsK5Zn4Sn5S17,1.6840000000000002
CsK7Rb5,0.0
CsKICl,4.0996
CsKMg30O31,2.9558999999999997
CsKMg30O31,1.7546
CsKMo4(P3O13)2,2.337
CsKNa2Li12(SiO4)4,4.722099999999999
CsKNaLi13(SiO4)4,3.8945
CsKPt6(S3O14)2,1.1189
CsKRb2,0.0
CsKTeH6SO10,3.1915
CsKZr6BCl15,1.0097999999999998
CsLa(MoO4)2,3.3379000000000003
CsLa(NbBr3)6,0.9812000000000001
CsLa(PO3)4,5.0449
CsLa(SO4)2,4.1847
CsLa(TaBr3)6,1.3172000000000001
CsLa(WO4)2,3.6494999999999997
CsLa2Br7,3.4023
CsLa2CuSe4,1.0753999999999997
CsLa2TaTi2O10,2.3295999999999997
CsLa2Ti2NbO10,1.5818999999999996
CsLa3O5,3.3658999999999994
CsLa6FeI10,0.1463000000000001
CsLaCdTe3,1.7300999999999997
CsLaHgSe3,1.4545
CsLaMg30O32,2.8641000000000005
CsLaMg30O32,1.0913999999999993
CsLaNb2O7,1.4413999999999998
CsLaO2,2.9322
CsLaS2,2.5035
CsLaZnTe3,1.5873999999999997
CsLaZr6CCl18,1.4203999999999999
CsLaZr6FeCl18,1.3104999999999998
CsLi(B3O5)2,5.2081
CsLi(B3O5)2,5.025
CsLi(B3O5)2,5.0778
CsLi(H2N)2,1.9969999999999999
CsLi(PO3)2,5.2843
CsLi2(HO)3,3.6914
CsLi2(HO)3,3.9995
CsLi2(HO)3,4.1415
CsLi2BS3,3.0936
CsLi2Br3,4.2829
CsLi2Cl3,5.326
CsLi2Cl3,5.2393
CsLi2F3,7.0403
CsLi2Gd4(BO3)5,2.5666
CsLi2I3,4.4204
CsLi3Br4,4.1475
CsLi3Cl4,5.2744
CsLi3F4,6.7384
CsLi3I4,4.2797
CsLi4(BO2)5,4.4885
CsLi5(BO3)2,3.9878
CsLi5Mn(P2O7)2,3.959
CsLi7(NiO3)2,2.4418
CsLiAcO3,0.0
CsLiBeF4,7.0366
CsLiBr2,4.1375
CsLiCl2,5.1073
CsLiCl2,5.0329
CsLiCrO4,2.7465
CsLiF2,6.2744
CsLiH4S2(NO3)2,5.5265
CsLiH4SO5,4.3863
CsLiI2,3.7263
CsLiMg14,0.0
CsLiMg30O31,1.8437000000000001
CsLiMg30O31,1.9439000000000002
CsLiMnP3HO10,2.0233000000000003
CsLiMnS2,0.8092999999999999
CsLiMoO4,4.4239999999999995
CsLiO,2.3971999999999998
CsLiO,1.6344000000000003
CsLiSO4,4.1019000000000005
CsLiSO4,5.1673
CsLiSO4,5.378
CsLiTa(PO4)2,0.09560000000000013
CsLiTa(PO4)2,0.16240000000000032
CsLiU(PS4)2,0.15300000000000002
CsLiWO4,4.4294
CsLiZnS2,2.5019
CsLu(MoO4)2,3.746
CsLu(MoO4)2,2.9074999999999998
CsLu(MoO4)2,3.5298
CsLu(NbBr3)6,0.9749999999999999
CsLu(NbCl3)6,0.9451999999999998
CsLu(SO4)2,5.3528
CsLu(TaBr3)6,1.3127
CsLu2Cl7,4.6579999999999995
CsLu2Cu3Se5,1.2562000000000002
CsLu3F10,6.7414
CsLu4F13,5.959
CsLu7S11,2.0317999999999996
CsLu7Se11,1.5104999999999997
CsLuCdTe3,1.5415
CsLuP2O7,5.1874
CsLuS2,2.2447000000000004
CsLuS2,2.1698
CsMg(PO3)3,4.8517
CsMg12Al25Si29O108,4.346
CsMg149,0.0
CsMg14Bi,0.0
CsMg14Cd,0.0
CsMg14Sb,0.0
CsMg14Sn,0.0
CsMg15,0.0
CsMg30AlO32,2.9951999999999996
CsMg30AlO32,3.1667999999999994
CsMg30BO31,2.6056999999999997
CsMg30BO31,1.4778000000000011
CsMg30BO32,3.3763999999999994
CsMg30BiO32,1.1799999999999997
CsMg30BiO32,2.9218
CsMg30CrO32,2.6196
CsMg30CrO32,2.9493
CsMg30FeO32,2.0294999999999996
CsMg30GaO32,2.8015
CsMg30GaO32,3.082
CsMg30MnO32,1.8102
CsMg30MnO32,1.1417000000000002
CsMg30SbO32,2.3890000000000002
CsMg30SbO32,0.9368999999999996
CsMg30SiO32,0.3543000000000003
CsMg30SiO32,0.34190000000000076
CsMg30TiO32,0.0
CsMg30TiO32,0.4349999999999996
CsMg30WO32,1.9441000000000006
CsMg30WO32,2.6942000000000004
CsMg4Al9(SiO4)9,4.0440000000000005
CsMgAlF6,6.8485
CsMgAs(H6O5)2,4.2896
CsMgBO3,3.1495999999999995
CsMgBr3,4.0445
CsMgCl3,5.126099999999999
CsMgCoF6,1.9747
CsMgF3,6.7028
CsMgFe(MoO4)2,1.6018
CsMgFeF6,3.4448999999999996
CsMgGaF6,5.6419
CsMgH12(ClO2)3,4.9182
CsMgH3,2.6161000000000003
CsMgH3,2.9046999999999996
CsMgI3,3.1519999999999997
CsMgInF6,4.5677
CsMgNiF6,0.38639999999999997
CsMgP(H6O5)2,4.8246
CsMgPO4,4.4168
CsMgSb(PO4)2,3.7230000000000003
CsMn(CN)3,0.0
CsMn(PO3)4,0.9425000000000001
CsMn(PO3)6,0.30469999999999997
CsMn2(PO3)6,0.0
CsMn2N3,0.035700000000000065
CsMn2V2ClO7,1.8948999999999998
CsMn4Cl9,1.8802
CsMnAs,0.0
CsMnBr3,0.0
CsMnCl3,1.4829
CsMnCrF6,1.5957999999999999
CsMnCu3Se4,0.09210000000000029
CsMnCuF6,0.0
CsMnF3,3.4556
CsMnF4,0.0994
CsMnF4,1.9524000000000001
CsMnFeF6,1.1137000000000001
CsMnGa2P3(H2O7)2,3.3475
CsMnH24(SO10)2,1.8193000000000001
CsMnH24(SO10)2,0.015600000000000058
CsMnH4(OF2)2,2.1071
CsMnH4Cl3O2,3.9422
CsMnH5(SO5)2,4.3098
CsMnI3,0.0
CsMnInTe3,1.2444000000000002
CsMnMo(OF)3,0.018799999999999928
CsMnN,0.0
CsMnN9,0.0
CsMnO4,1.8635000000000002
CsMnP,0.0
CsMnP3HO10,0.7102
CsMnSb,0.0
CsMnSe2,0.0
CsMnTe2,0.0
CsMnVF6,1.8989000000000003
CsMo(PO4)2,2.4808000000000003
CsMo2P2O11,0.08549999999999991
CsMo2P3O13,2.2729
CsMo2P3O13,2.3400000000000003
CsMo2P3O13,0.5602
CsMo3Br3Cl4,2.5856
CsMo3Cl7,2.5873999999999997
CsMo3I3Cl4,2.4383
CsMo3I7,1.6159999999999997
CsMo4(PO4)7,2.5434
CsMo6Se7,0.0
CsMoAsH2O7,3.4652
CsMoF7,3.4794
CsMoIO6,2.6158
CsMoN2,0.0
CsMoN3O11,2.7732
CsMoO2F3,3.4234
CsMoP2HO9,3.2355
CsMoP2O7,3.7946999999999997
CsMoPO6,6.5766
CsN3,3.79
CsN3,4.2395
CsNO2,2.3632
CsNO3,3.2763999999999998
CsNO3,3.0919
CsNO3,3.2965
CsNa2,0.0
CsNa2(H5O3)3,4.43
CsNa2BO3,3.2483
CsNa2Be6(BO3)5,4.5093
CsNa2Fe3P4ClO14,3.3634
CsNa2Ge17,0.0
CsNa2H3(SO4)3,5.364800000000001
CsNa2H4Cl3O2,4.7661999999999995
CsNa2Mn3P4ClO14,2.5772999999999997
CsNa2Si17,0.0
CsNa3,0.0
CsNa3Li12(GeO4)4,3.7822999999999998
CsNa3P4(H2O5)3,5.0753
CsNa3PbO4,1.4986000000000002
CsNa3TiO4,3.4808
CsNa3U4(MoO10)2,1.7917999999999998
CsNa5(FeO3)2,2.2614
CsNa5(WN3)2,1.7775
CsNa7Ta8O24,0.0
CsNaB10(H2O9)2,5.7673000000000005
CsNaB10H31N7,2.8805
CsNaB4H12O13,4.9524
CsNaEuNb5O15,0.0
CsNaF3,0.0
CsNaF3,0.01750000000000007
CsNaGe2,1.2682
CsNaICl,3.512
CsNaMg14,0.0
CsNaMg30O31,1.7947000000000006
CsNaMo3O10,3.2507
CsNaNbOF5,4.3489
CsNaS,2.4133999999999998
CsNaSe,2.027
CsNaSi2O5,4.4582
CsNaSiO3,3.7895
CsNaSnF6,5.143599999999999
CsNaTe,1.9696
CsNaTiO3,3.3617999999999997
CsNb(BO3)2,3.2987
CsNb(CuTe2)2,1.0253
CsNb(PO4)2,3.2312000000000003
CsNb(PO4)2,2.5389
CsNb2(SiO3)8,0.0
CsNb2BiO7,2.4818
CsNb2PS10,1.4408000000000003
CsNb2PSe10,0.8597999999999999
CsNb3(PO5)3,0.0
CsNb3SBr7,0.0040000000000000036
CsNb3VCl11,0.0
CsNb4Ag(PS10)2,1.5918
CsNb4Br11,0.30010000000000003
CsNb4Cl11,0.45420000000000016
CsNb6I11,0.0
CsNbCl6,2.3320999999999996
CsNbF6,5.2004
CsNbN2,1.6441
CsNbN2,1.5227999999999997
CsNbNi(OF2)2,3.0564999999999998
CsNbO3,3.319
CsNbS2O9,2.7579000000000002
CsNbV2O8,2.4885
CsNbWO6,2.8953
CsNd(MoO4)2,3.6679
CsNd(MoO4)2,3.2476
CsNd(MoO4)2,3.6571000000000002
CsNd(PO3)4,5.5905000000000005
CsNd(PO3)4,5.3244
CsNd(PO3)4,5.493200000000001
CsNd(WO4)2,3.5050999999999997
CsNd2Ag3Te5,1.0241000000000002
CsNd2CuSe4,0.8344
CsNd2Ti2NbO10,1.5761999999999996
CsNd5Se8,1.6224999999999996
CsNdCdTe3,1.5147000000000004
CsNdHgSe3,1.3539
CsNdNb2O7,2.3920000000000003
CsNdO2,2.9366000000000003
CsNdS2,2.2185
CsNdS2,2.1496
CsNdTe2,1.2919999999999998
CsNdZnTe3,1.3651
CsNi2F6,0.9768
CsNi2F6,0.0
CsNiBr3,0.0
CsNiC3(SN)3,0.2749999999999999
CsNiCl3,0.8049000000000002
CsNiF3,0.0
CsNiF3,4.7178
CsNiF3,5.3618
CsNiF3,4.3878
CsNiN,0.015900000000000247
CsNiN,0.7766
CsNiO2,0.41369999999999973
CsNiPdF5,0.5593
CsNpAgS3,0.07629999999999981
CsNpCl2O3,1.4092
CsNpCuS3,0.0
CsNpMoO6,0.3369
CsNpMoO7,1.3526
CsNpO3,0.0
CsO2,0.0
CsO3,0.9415
CsOs2O9,0.0
CsOsC3(ClO)3,3.6727000000000003
CsOsNO3,2.9029
CsP(HO)2,5.1543
CsP(HO2)2,5.1316999999999995
CsP(HO2)2,5.0373
CsP(HO2)2,5.201099999999999
CsP(OF)2,5.1874
CsP2(HO2)3,5.861000000000001
CsP2H3N,2.1081
CsP2H5O8,5.5274
CsP2H5O8,5.5122
CsP2H5O8,5.502800000000001
CsP4N7,3.5844999999999994
CsP7,1.2774
CsP7,1.3142000000000005
CsP8(WO5)8,0.6382999999999999
CsPF6,7.1409
CsPH3O3F,6.4259
CsPH3O4F,5.6175
CsPH4(NO)2,4.5992
CsPHO3F,5.1985
CsPO3,5.422300000000001
CsPO3,5.0865
CsPO4,0.0
CsPPb(IF3)2,2.5021
CsPPbO4,4.0581
CsPPbS4,2.3363
CsPPbSe4,1.5613000000000001
CsPS3,1.9062000000000001
CsPSO2,3.9868
CsPSO2,4.075799999999999
CsPSe6,1.7032000000000003
CsPSe6,1.6167
CsPaO3,2.9729999999999994
CsPb2Br5,3.0958
CsPb2Cl5,3.5785
CsPb2Cl5,3.8164
CsPb2I5,1.9628999999999999
CsPb3,0.0
CsPbBr3,1.8178
CsPbBr3,1.955
CsPbBr3,2.0120999999999998
CsPbBr3,2.8808
CsPbBr3,1.7819000000000003
CsPbCl3,2.7365000000000004
CsPbCl3,2.1878
CsPbCl3,2.6799
CsPbCl3,2.413
CsPbF3,3.3373999999999997
CsPbF3,2.9083000000000006
CsPbI2Br,1.4384
CsPbI3,1.4785000000000001
CsPbI3,1.6421000000000001
CsPbI3,2.5181
CsPd2Cl5,1.3553
CsPd2F5,0.0
CsPdBr3,0.3719999999999999
CsPdBr3,0.0
CsPdCl3,0.0
CsPdCl3,1.4655
CsPdF3,0.0
CsPr(CO3)2,4.5623
CsPr(MoO4)2,3.6994000000000002
CsPr(NbBr3)6,0.9777999999999998
CsPr(PO3)4,5.2958
CsPr(PO3)4,5.3323
CsPr(SO4)2,5.413600000000001
CsPr(WO4)2,3.5679
CsPr2Ag3Te5,1.1305
CsPr2Cl7,4.3786
CsPr2Ti2NbO10,1.5705
CsPr3CI6,0.7084000000000001
CsPr6FeI10,0.2107000000000001
CsPr9Nb(Br5N2)3,2.3280000000000003
CsPrCdSe3,1.9664000000000001
CsPrCdTe3,1.5231000000000003
CsPrHgSe3,1.3367
CsPrS2,2.2283999999999997
CsPrS2,2.1610000000000005
CsPrZnTe3,1.3607
CsPt2Se3,1.0495
CsPuO3,0.0
CsPuP2S7,0.1506000000000003
CsRb,0.0
CsRb(MnCl3)2,1.2133000000000003
CsRb14Tl27,0.0
CsRb2AlBr6,3.3521
CsRb2AlCl6,4.4662
CsRb2AlF6,5.8323
CsRb2AlI6,2.1328
CsRb2AsBr6,2.9234999999999998
CsRb2AsCl6,3.5025
CsRb2AsF6,3.8491
CsRb2AsI6,2.3568
CsRb2Au7,0.0
CsRb2AuBr6,0.0
CsRb2AuCl6,0.1722
CsRb2AuF6,0.6607999999999999
CsRb2Bi,0.18720000000000003
CsRb2BiF6,4.1231
CsRb2CoF6,3.2035
CsRb2DyCl6,4.4591
CsRb2ErCl6,4.448
CsRb2FeF6,4.1741
CsRb2GaBr6,2.3778
CsRb2GaCl6,3.3928000000000003
CsRb2GaF6,5.539300000000001
CsRb2GaI6,1.1875