formula,band_gap
CaLa3(CoO4)2,0.44090000000000007
CaLa3(CoO4)2,0.016799999999999926
CaLa3(FeO3)4,0.0
CaLa3Mn4O10,0.9226999999999999
CaLa3Mn4O12,0.0
CaLa3Si8,0.0
CaLa4Ga2(FeO6)2,2.3814
CaLa4Si3O13,4.4836
CaLa4Ti3RuO15,0.0
CaLa9Ti5Cr5O30,0.0
CaLaAg2,0.0
CaLaAl3O7,4.3925
CaLaAl3O7,4.3945
CaLaAl4,0.0
CaLaAu2,0.0
CaLaCd2,0.0
CaLaCr2O6,0.4950000000000001
CaLaCrBiO6,0.0
CaLaCrCoO6,0.0
CaLaCrFeO6,0.0
CaLaCrMoO6,1.5053
CaLaCrNiO6,0.6463000000000001
CaLaCrSbO6,0.6528999999999998
CaLaCrSbO6,1.4122000000000003
CaLaCrSnO6,2.3655999999999997
CaLaCrSnO6,2.1181
CaLaCrWO6,2.1252000000000004
CaLaFeAgO6,0.0
CaLaFeBiO6,0.0
CaLaFeCoO6,0.0
CaLaFeCuO6,0.0
CaLaFeMoO6,1.1514000000000006
CaLaFeNiO6,0.0
CaLaFeNiO6,0.35799999999999965
CaLaFeO4,0.5136000000000003
CaLaFeO4,1.4018999999999995
CaLaFeSbO6,1.9744000000000002
CaLaFeSbO6,2.2546999999999997
CaLaFeSnO6,2.1986000000000008
CaLaFeWO6,0.2203999999999997
CaLaFeWO6,2.471
CaLaGa3O7,3.2684
CaLaGa3S6O,2.6344
CaLaGa3S7,2.3608
CaLaGaCuO5,0.0
CaLaGaO4,3.1802
CaLaGaO4,3.4555
CaLaHg2,0.0
CaLaI5,2.1794000000000002
CaLaI5,2.0888000000000004
CaLaI5,2.1073000000000004
CaLaI5,2.1489000000000003
CaLaMg14,0.0
CaLaMg2,0.0
CaLaMg6,0.0
CaLaMgAl2Si3HO13,4.446700000000001
CaLaMgTaO6,3.9824999999999995
CaLaMn2O6,0.0
CaLaMnCrO6,0.0
CaLaMnFeO6,1.3633000000000006
CaLaMnFeO6,1.4781000000000004
CaLaMnMoO6,1.1277999999999997
CaLaMnNbO6,2.4089
CaLaMnNbO6,2.0477
CaLaMnRuO6,0.0
CaLaMnSnO6,0.4520999999999997
CaLaNbCoO6,0.7432999999999996
CaLaSi4,0.0
CaLaTaCrO6,1.9194000000000004
CaLaTaFeO6,2.6867
CaLaTiCrO6,2.3315
CaLaTiFeO6,0.0
CaLaTiMnO6,0.24359999999999982
CaLaVCrO6,1.2525000000000004
CaLaVFeO6,0.0
CaLaVFeO6,1.0776000000000003
CaLaVFeO6,1.0324999999999998
CaLaZn2,0.0
CaLu2(GeO3)4,3.1276
CaLu2O4,3.9013000000000004
CaLuHg2,0.0
CaLuMn2O6,0.0
CaLuPd2,0.0
CaLuRh2,0.0
CaMg,0.0
CaMg,0.25439999999999996
CaMg,0.08569999999999967
CaMg(CO3)2,5.0091
CaMg(PSe3)2,2.3479
CaMg(SiO3)2,4.5994
CaMg(SiO3)2,4.6601
CaMg(SiO3)2,4.9716
CaMg149,0.49990000000000023
CaMg14Al,0.0
CaMg14AlO16,0.0
CaMg14Bi,0.0
CaMg14BiO16,0.0
CaMg14Cd,0.0
CaMg14CdO16,3.336499999999999
CaMg14CdO16,2.6887
CaMg14Co,0.0
CaMg14CoO16,0.6067999999999998
CaMg14CoO16,1.0614999999999997
CaMg14Cr,0.0
CaMg14CrO16,1.0648
CaMg14CrO16,0.4305000000000003
CaMg14Cu,0.0
CaMg14CuO16,0.0
CaMg14Fe,0.0
CaMg14FeO16,0.0
CaMg14FeO16,2.6849
CaMg14Ga,0.0
CaMg14Mn,0.0
CaMg14MnO16,2.0248
CaMg14MnO16,1.6882000000000001
CaMg14Mo,0.0
CaMg14Nb,0.0
CaMg14NbO16,0.2896000000000001
CaMg14NbO16,0.0
CaMg14Ni,0.0
CaMg14NiO16,3.5849
CaMg14NiO16,3.4417
CaMg14Sb,0.0
CaMg14Si,0.0
CaMg14SiO16,0.7162000000000006
CaMg14SiO16,0.18870000000000076
CaMg14Sn,0.0
CaMg14SnO16,0.28860000000000063
CaMg14SnO16,0.0
CaMg14Ti,0.0
CaMg14TiO16,0.0
CaMg14V,0.0
CaMg14VO16,1.2276999999999996
CaMg14VO16,1.4613000000000005
CaMg14Zn,0.0
CaMg14ZnO16,3.3667000000000007
CaMg14ZnO16,3.5234999999999994
CaMg14Zr,0.0
CaMg15,0.0
CaMg2,0.0
CaMg2,0.17730000000000024
CaMg2(SO4)3,5.8318
CaMg2(SO4)3,5.7585999999999995
CaMg2Al4SiO12,0.14329999999999998
CaMg2Al6O12,3.2782999999999998
CaMg2H24(ClO2)6,4.9826
CaMg2N2,1.9968999999999997
CaMg2Ni9,0.0
CaMg2TiAl2SiO10,3.2501999999999995
CaMg3,0.0
CaMg3(CO3)4,4.815300000000001
CaMg3(SiO3)4,4.7023
CaMg30AlO32,0.35359999999999836
CaMg30AlO32,0.35389999999999944
CaMg30BiO32,0.10989999999999966
CaMg30BiO32,0.14509999999999934
CaMg30CO32,2.904
CaMg30CO32,3.1308999999999996
CaMg30CdO32,3.9000999999999997
CaMg30CdO32,3.6572999999999993
CaMg30CoO32,1.806
CaMg30CoO32,1.2366000000000001
CaMg30CrO32,0.6942000000000004
CaMg30CrO32,1.7117999999999993
CaMg30CuO32,0.3644999999999996
CaMg30CuO32,0.32339999999999947
CaMg30FeO32,3.2624999999999993
CaMg30FeO32,0.0
CaMg30MnO32,2.9903000000000004
CaMg30MnO32,2.5162000000000004
CaMg30NbO32,0.6307999999999998
CaMg30NbO32,0.14349999999999952
CaMg30NiO32,4.2402999999999995
CaMg30NiO32,4.0235
CaMg30SiO32,1.4436
CaMg30SiO32,1.8760999999999992
CaMg30SnO32,1.8848000000000003
CaMg30SnO32,1.3921000000000001
CaMg30TiO32,0.42600000000000016
CaMg30TiO32,0.0
CaMg30VO32,1.780499999999999
CaMg30VO32,2.0036000000000005
CaMg30ZnO32,3.99
CaMg30ZnO32,4.139600000000001
CaMg3O4,3.904
CaMg3Si3O10,3.4088000000000003
CaMg3SiN4,2.4021
CaMg5,0.0
CaMg5P3CO16,0.5874000000000001
CaMg5P3HCO16,5.0362
CaMg6Al,0.0
CaMg6Bi,0.0
CaMg6Cd,0.0
CaMg6CdO8,1.641
CaMg6CdO8,1.7076000000000002
CaMg6CoO8,1.3336999999999994
CaMg6CoO8,1.7251000000000003
CaMg6CrO8,0.0
CaMg6Cu,0.0
CaMg6CuO8,0.0
CaMg6FeO8,1.9143999999999997
CaMg6FeO8,2.0330999999999992
CaMg6Ga,0.0
CaMg6Mn,0.0
CaMg6MnO8,1.0767999999999995
CaMg6MnO8,1.2911000000000001
CaMg6Nb,0.0
CaMg6Ni,0.0
CaMg6NiO8,2.6978999999999997
CaMg6NiO8,2.9159000000000006
CaMg6Sb,0.0
CaMg6Si,0.0
CaMg6Sn,0.0
CaMg6Ti,0.0
CaMg6TiO8,0.0
CaMg6VO8,0.8140000000000001
CaMg6VO8,1.2070000000000007
CaMg6Zn,0.0
CaMg6ZnO8,2.7901999999999996
CaMg6ZnO8,2.6121
CaMg6Zr,0.0
CaMg7,0.0
CaMg7(SiO3)8,4.6611
CaMgAsO4F,3.9404000000000003
CaMgAsO4F,3.9326000000000003
CaMgB2O5,5.3634
CaMgB2O5,5.3282
CaMgB2O5,5.311999999999999
CaMgB6(HO)22,4.9561
CaMgB6H12O17,5.6314
CaMgBiSbO6,1.4974999999999996
CaMgCd,0.0
CaMgCd2,0.0
CaMgGe,0.0
CaMgGeO4,3.6233999999999997
CaMgHg2,0.0
CaMgNi4,0.0
CaMgNiH4,1.8729999999999998
CaMgPO4F,5.564
CaMgPb,0.0
CaMgPd,0.0
CaMgS2,2.9192
CaMgSi,0.0
CaMgSiO4,4.6294
CaMgSiO4,4.6952
CaMgSn,0.0
CaMgTl2,0.0
CaMgUH24C3O23,2.3373
CaMgV2O7,2.7162
CaMgVO5,0.8268000000000001
CaMgZn,0.0
CaMn(GeO3)2,1.6037000000000003
CaMn(GeO3)2,1.3917000000000002
CaMn(PO3)4,4.4715
CaMn(Si2O5)2,2.7891999999999997
CaMn(SiO3)2,3.2154999999999996
CaMn(SiO3)2,2.8319
CaMn12O24,0.08260000000000023
CaMn16O32,0.0
CaMn2(H2O3)4,2.1103
CaMn2(P2O7)2,0.8432000000000001
CaMn2(P2O7)2,1.0133999999999999
CaMn2(P2O7)2,1.2118
CaMn2(P2O7)2,0.6812000000000002
CaMn2(PO4)2,3.106
CaMn2(PO5)2,0.0
CaMn2(SiO3)4,1.1615000000000002
CaMn25FeSi4SbO44,0.01770000000000005
CaMn28,0.0
CaMn2Be3(SiO4)3,4.1417
CaMn2Cu3(RuO6)2,0.0
CaMn2F10,1.7105
CaMn2O4,0.9918
CaMn2O4,1.6466
CaMn2O4,1.2163
CaMn2O4,0.0
CaMn2O4,0.24409999999999998
CaMn2O4,0.052200000000000024
CaMn2O4,0.6429
CaMn2O4,0.02760000000000007
CaMn2O4,1.2288999999999999
CaMn2O4,0.6416999999999997
CaMn2O4,0.7593999999999999
CaMn2O4,0.8246000000000002
CaMn2O4,1.5732
CaMn2O4,0.5781000000000001
CaMn2O4,2.0103
CaMn2P2(H2O5)2,3.3107000000000006
CaMn2P2O9,0.0
CaMn2Te3,0.0
CaMn2V4CuO12,0.0
CaMn3(P2O7)2,3.7333
CaMn3Cu3RuO12,0.0
CaMn3O4,0.5937999999999999
CaMn3O4,0.7771999999999997
CaMn3O6,0.0
CaMn3P3O13,0.33989999999999987
CaMn3V4O12,0.0
CaMn3V4O12,0.5004999999999997
CaMn3V4O12,0.1719999999999997
CaMn3V4O12,0.4150999999999998
CaMn3Zn(SiO3)5,2.8848
CaMn4(CoO6)2,1.1606999999999998
CaMn4(CoO6)2,0.4937
CaMn4(CuO4)3,0.0
CaMn4(SiO3)5,2.9173000000000004
CaMn4O6,0.0
CaMn4O8,0.0
CaMn4O8,0.25249999999999995
CaMn4O8,0.25319999999999965
CaMn4O8,0.41800000000000015
CaMn5O7,0.0
CaMn6(OF2)4,0.36809999999999987
CaMn6(OF2)4,0.6762999999999999
CaMn6(OF2)4,0.5078
CaMn6(OF2)4,0.6681999999999999
CaMn6(OF2)4,0.28479999999999994
CaMn6(OF2)4,0.16500000000000004
CaMn6(OF2)4,0.2836000000000001
CaMn6O5F7,0.9523999999999999
CaMn6O5F7,0.21650000000000014
CaMn6O5F7,0.43199999999999994
CaMn6O5F7,0.20910000000000029
CaMn6SiO12,0.5927000000000002
CaMn7O12,0.0
CaMn7O8,0.5138999999999996
CaMn8(OF)8,0.0
CaMn8O13F3,0.0
CaMn8O16,0.11609999999999987
CaMnAl4SiP3(HO4)5,4.886700000000001
CaMnAs2(H3O5)2,2.0553
CaMnAs2O7,1.5539999999999998
CaMnAsO5,1.2868
CaMnB2O5,1.5225
CaMnBi2,0.0
CaMnBiO5,1.4433999999999996
CaMnBiO5,1.1009
CaMnCu3(RuO4)3,0.0
CaMnF4,0.9425999999999997
CaMnF5,1.5558
CaMnF5,0.995
CaMnF6,3.2129
CaMnFeBiO6,0.7048999999999994
CaMnFeGe2,0.0
CaMnGe,0.0
CaMnGeO4,1.7912999999999997
CaMnIrO6,0.0
CaMnN2,0.0
CaMnNiP2O9,0.02619999999999978
CaMnO2,1.7860999999999998
CaMnO2,2.1657
CaMnO2,0.0
CaMnO2,1.8197999999999999
CaMnO2,1.0003000000000002
CaMnO2,0.8195000000000001
CaMnO2,0.9560000000000004
CaMnO3,0.0
CaMnO3,0.4685999999999999
CaMnP2O7,3.6233000000000004
CaMnP2O7,4.161999999999999
CaMnP2O7,3.4785000000000004
CaMnS2,0.3333000000000004
CaMnSb2,0.0
CaMnSe2,0.34469999999999956
CaMnSi,0.0
CaMnSi2O7,0.7001
CaMnSiHO5,0.0
CaMnSiO4,2.5993999999999997
CaMnSn,0.0
CaMnSnWO6,1.3297999999999996
CaMnV4(CuO6)2,0.0
CaMnWO6,0.8556999999999999
CaMnZnAs2H3O10,2.7485999999999997
CaMnZnAs2H3O10,1.1903000000000001
CaMo2(PO5)2,0.6623999999999999
CaMo2O7,3.7247000000000003
CaMo2P2O9,2.7485000000000004
CaMo3P3O13,1.1772000000000005
CaMoAsO5,1.3548
CaMoF5,3.8249
CaMoF5,3.7032
CaMoF6,2.5031
CaMoN3,0.0
CaMoN3,0.5679000000000007
CaMoO3,1.0948000000000002
CaMoO3,1.1315999999999997
CaMoO3,1.3335
CaMoO4,3.5006999999999997
CaN2,0.0
CaN6,3.2200999999999995
CaN6,3.4205
CaNb2(P2O7)3,2.3702
CaNb2CuBrO7,0.0
CaNb2Ga2(CuO4)3,0.0
CaNb2O4,1.2773000000000003
CaNb2O6,3.6052
CaNb2P2O11,2.4743
CaNb2Te4Cl10O,0.0
CaNb2Te4Cl10O,0.021300000000000097
CaNb4O8,0.0
CaNb5(PO4)9,2.4187999999999996
CaNbFeSnO6,1.8048999999999995
CaNbNO2,0.6147999999999998
CaNbO3,0.0
CaNbP(SO6)2,1.9806000000000001
CaNd2(CuO2)4,0.0047999999999999154
CaNd2BeO5,3.9495000000000005
CaNd2Mn3O9,0.0
CaNd2Ti2Mn2O12,1.3218000000000005
CaNd2Ti2ZnO9,2.4057
CaNd3,0.0
CaNd3Cr4O16,0.2911999999999999
CaNd3Mn4O12,0.0
CaNdAg2,0.0
CaNdAl3O7,4.2799000000000005
CaNdAlO4,2.9266000000000005
CaNdAu2,0.0
CaNdCd2,0.0
CaNdCoO4,0.6863999999999999
CaNdCoO4,0.9737
CaNdCrO4,2.1822000000000004
CaNdCrO4,2.7047000000000003
CaNdCrO4,0.0
CaNdEuSbO6,0.0
CaNdEuSbO6,0.011099999999999888
CaNdFeO4,0.0
CaNdFeSnO6,2.208
CaNdGa3O7,3.2042
CaNdGa3O7,3.231
CaNdGaO4,3.8876000000000004
CaNdHfFeO6,2.0833000000000004
CaNdHfTiO6,0.0
CaNdHg2,0.0
CaNdMn2O6,0.0
CaNdNb2O7,0.0
CaNdRh2,0.0
CaNdTi4O12,0.0
CaNdTiMnO6,0.2373000000000003
CaNdV4O12,0.0
CaNdZn2,0.0
CaNdZrCrO6,2.4074000000000004
CaNi,0.0
CaNi(GeO3)2,2.6157
CaNi(GeO3)2,2.8164000000000002
CaNi(PO3)4,4.1007
CaNi2,0.0
CaNi2(P2O7)2,0.0
CaNi2(PO4)2,3.1073000000000004
CaNi2P2O9,0.0
CaNi2S5,0.0
CaNi3,0.0
CaNi3(P2O7)2,4.0017
CaNi4B,0.0
CaNi5,0.0
CaNi5H,0.0
CaNiAs2O7,2.3902
CaNiAsHO5,2.4759
CaNiAsO5,0.0
CaNiBN,0.0
CaNiBP2H3O10,4.0596
CaNiBiO5,1.0012999999999999
CaNiBiP2O9,0.0
CaNiF4,1.7546
CaNiF4,4.2162
CaNiF5,2.2137
CaNiF5,0.0
CaNiF6,2.1462000000000003
CaNiGe,0.0
CaNiGe2,0.0
CaNiGeH,0.0
CaNiH3,0.0
CaNiMoP2O9,1.6824000000000003
CaNiN,0.0
CaNiO2,2.0855
CaNiO2,2.4541999999999997
CaNiO3,0.0
CaNiO3,1.2293000000000003
CaNiP2O7,3.1278999999999995
CaNiP2O7,4.018800000000001
CaNiP2O7,3.5149
CaNiP2WO9,0.0
CaNiSbP2O9,0.0
CaNiSnP2O9,2.8235000000000006
CaNp(HO)9,1.4339
CaNp(PO4)2,0.4800999999999993
CaNpH7O8,1.5401
CaO,3.6301000000000005
CaO,3.12
CaO10,0.0
CaO2,2.7345
CaOsO3,0.0
CaP,0.3443000000000005
CaP(H2O3)2,0.0
CaP2(H2O3)3,5.5328
CaP2(HO)4,5.5901
CaP2(HO2)4,5.6524
CaP2(HO2)4,4.8870000000000005
CaP2(WO5)2,1.8870000000000005
CaP2H10(NO4)2,4.8111
CaP2H20C4(N2O3)4,4.984500000000001
CaP2H2O7,5.7059999999999995
CaP2H5NO7,5.2103
CaP2H6O7,6.4004
CaP2H8(CO3)2,5.475099999999999
CaP2PdO7,0.3569
CaP2W2O9,2.2491999999999996
CaP2WO7,1.4447
CaP2Xe5F22,2.7179
CaP3,0.0049000000000001265
CaP3H10NO12,5.119
CaP3H16(NO4)3,3.5943
CaP3H16(NO4)3,4.5516
CaP3W3O13,0.9698000000000002
CaP4(Br3O)4,2.1948
CaP4(Br3O)4,1.6072
CaP4(Br3O)4,2.0285
CaP4(Br3O)4,0.10980000000000001
CaP4(Br3O)4,1.9045
CaP4(HO6)2,5.6369
CaP4O11,5.3272
CaP4O11,5.5156
CaP4WO12,1.9125999999999999
CaP6(HN3)4,4.1792
CaPAu,0.0
CaPH3O4,6.067200000000001
CaPH4O5F,4.978400000000001
CaPH5O6,5.3416
CaPHO4,5.052
CaPHO4,5.4321
CaPO4,0.0
CaPPt,0.0
CaPS3,3.0848000000000004
CaPSe3,1.9014000000000002
CaPb,0.0
CaPb3,0.0
CaPb3Se4,0.6848000000000001
CaPbF6,3.4558999999999997
CaPbI4,2.8232999999999997
CaPbI4,2.6887
CaPbI4,2.6306000000000003
CaPbI4,2.6263
CaPbI4,2.7904999999999998
CaPbI4,2.4749
CaPbI4,3.0673
CaPbI4,2.8871
CaPbI6,1.7803000000000002
CaPbI6,1.8245999999999998
CaPbO3,0.9331999999999998
CaPbSe2,0.7464000000000004
CaPd,0.0
CaPd2,0.0
CaPd3O4,0.0
CaPd5,0.0
CaPdF4,0.0
CaPdF4,1.1613000000000002
CaPdF6,2.1062
CaPdPb,0.0
CaPm3,0.0
CaPmAg2,0.0
CaPmAu2,0.0
CaPmCd2,0.0
CaPmHg2,0.0
CaPmMg2,0.0
CaPmPd2,0.0
CaPmPt2,0.0
CaPmRh2,0.0
CaPmZn2,0.0
CaPr(AgO3)2,0.0
CaPr(BiO3)2,0.0
CaPr(CoO3)2,0.0
CaPr(CuO3)2,0.0
CaPr(FeO3)2,0.0
CaPr(MoO3)2,1.1796000000000006
CaPr(NiO3)2,0.0
CaPr(SbO3)2,0.0
CaPr(SnO3)2,0.0
CaPr2BeO5,3.8903
CaPr2Ti2ZnO9,2.4402
CaPr3,0.0
CaPr3(CoO3)4,0.0
CaPr3(FeO3)4,0.0
CaPrAg2,0.0
CaPrAl3O7,4.2872
CaPrCd2,0.0
CaPrCoO4,0.6477999999999997
CaPrCr2O6,0.0
CaPrCrO4,2.643
CaPrHfCrO6,2.6840999999999995
CaPrHfFeO6,2.0903000000000005
CaPrHg2,0.0
CaPrMgBiO6,1.6036000000000006
CaPrMn2O6,0.0
CaPrMnSbO6,1.0769000000000002
CaPrNbVO6,0.0
CaPrO3,0.0
CaPrRh2,0.0
CaPrTi2O6,0.0
CaPrV2O6,0.0
CaPrZn2,0.0
CaPrZrCrO6,2.4468
CaPrZrFeO6,1.9476000000000004
CaPt2,0.0
CaPt3O4,0.0
CaPt5,0.0
CaPtF6,2.643
CaPtO3,1.2953000000000001
CaPtPb,0.0
CaRe2H6C(NO5)2,3.3871
CaRe3H9(S2O3)2,2.5431
CaReH4ClO6,3.1878
CaReN3,1.5174
CaRh2,0.0
CaRhF6,0.0
CaRhN2,0.0
CaRhO3,0.0
CaRuN2,0.0
CaRuN2,0.05350000000000055
CaRuO3,0.0
CaS,2.3819
CaS2(ClO3)2,4.6536
CaS3O10,4.9224000000000006
CaSO4,5.9683
CaSO4,5.684
CaSO4,5.9508
CaSO4,5.674
CaSO4,5.964899999999999
CaSb10(S3O5)2,1.7765000000000004
CaSb2,0.0
CaSb2(PO5)2,0.0
CaSb2H2F14,4.6983999999999995
CaSb2P2O9,2.2596999999999996
CaSb2S5,0.0
CaSb3O7,0.0
CaSb3P3O13,2.2528000000000006
CaSb4H6(SO8)2,3.5227000000000004
CaSbAsO5,3.1
CaSbAu,0.0
CaSbF5,4.475700000000001
CaSbF5,2.9875
CaSbF5,3.1498999999999997
CaSbF6,0.0
CaSbO3,0.0
CaSbPd,0.0
CaSbPd2,0.0
CaSbPt,0.0
CaSc2O4,3.4579999999999997
CaScAlSiO6,4.6365
CaScAlSiO6,4.604699999999999
CaScCu3Se4,1.8378999999999999
CaScSi3HO9,5.101800000000001
CaSe,2.0728000000000004
CaSe2O5,3.4779000000000004
CaSe2O7,0.0
CaSeO3,4.2602
CaSeO3,4.1407
CaSeO4,3.2683
CaSeO4,3.4068000000000005
CaSeO4,3.42
CaSeO4,3.4841000000000006
CaSi,0.0
CaSi(HO2)2,5.1408
CaSi2,0.0
CaSi2(AgO)8,0.6392999999999998
CaSi2(BO4)2,5.6644000000000005
CaSi2(NO)2,4.3692
CaSi2NiO6,3.5985
CaSi2NiO6,4.2294
CaSi2O5,4.7791999999999994
CaSi2SnO6,3.3719
CaSi2SnO6,2.8773
CaSi3,0.0
CaSi3Ir,0.0
CaSi3Pt,0.0
CaSi4(NiO6)2,0.0
CaSi4NiO10,3.3088
CaSi4SnO10,3.2741999999999996
CaSi4WO10,2.1854000000000005
CaSi7Ir3,0.0
CaSi7N10,3.769799999999999
CaSiAu,0.0
CaSiBHO5,4.7677
CaSiBHO5,4.2755
CaSiBHO5,5.390499999999999
CaSiBO5,0.4043000000000001
CaSiGe3S5O24,0.6953
CaSiH4(OF3)2,6.5428999999999995
CaSiN2,2.1951
CaSiN2,3.4391
CaSiNi2,0.0
CaSiO3,4.7336
CaSiO3,4.733700000000001
CaSiO3,4.8413
CaSiO3,4.707999999999999
CaSiO3,4.9087000000000005
CaSiP2,1.0249999999999995
CaSiPd,0.0
CaSiPt,0.0
CaSiSn3S5O24,0.7087000000000001
CaSiSnO5,3.2022
CaSiSnO5,3.2313
CaSm2O4,3.8425000000000002
CaSm2S3,0.0
CaSm3,0.0
CaSm4(Mo2O7)2,1.2814000000000005
CaSm4(Mo2O7)2,1.2584999999999997
CaSm4Tm4O12,0.5267
CaSmAg2,0.0
CaSmAl3O7,4.2347
CaSmAl4,0.0
CaSmAlO4,3.1856999999999998
CaSmB12,0.0
CaSmCd2,0.0
CaSmCoO4,1.0709
CaSmCrO4,2.4963
CaSmCuClO3,0.0
CaSmGa3O7,3.1912000000000003
CaSmHg2,0.0
CaSmIn2,0.0
CaSmMg2,0.0
CaSmMgNbO6,3.5820000000000003
CaSmMn2O6,0.0
CaSmMnSnO6,1.0705999999999998
CaSmMnSnO6,0.3601000000000001
CaSmPd2,0.0
CaSmRh2,0.0
CaSmTi4O12,0.0
CaSmZn2,0.0
CaSn,0.0
CaSn(BO3)2,3.7069
CaSn(GeO3)2,1.6305999999999998
CaSn(GeO3)2,1.8707000000000003
CaSn(PO3)4,3.9960999999999998
CaSn(SO4)3,1.7422
CaSn2(PO4)2,2.4956
CaSn2(PO5)2,2.4987000000000004
CaSn2F6,3.4998000000000005
CaSn2Ir,0.0
CaSn2O5,1.5040999999999998
CaSn2P2O9,1.1226000000000003
CaSn2Pd,0.0
CaSn2Rh,0.0
CaSn2S5,0.8171999999999997
CaSn2S5,0.4209999999999998
CaSn2S5,0.8349999999999995
CaSn2S5,0.9756
CaSn2S5,0.8361000000000001
CaSn2S5,0.3606999999999996
CaSn2S5,1.2572
CaSn2S5,1.6913999999999998
CaSn3,0.0
CaSn3(P2O7)2,2.5087
CaSn3O7,1.1030000000000006
CaSn3P2(SO6)4,1.1614000000000002
CaSn3P3O13,0.0
CaSn4(PO4)6,3.5178999999999996
CaSn4O9,0.7728999999999999
CaSn4S9,1.033
CaSn4S9,0.0
CaSn4S9,0.7523
CaSn5S11,0.2957000000000001
CaSn6S13,0.41359999999999975
CaSnAs2O7,2.2734
CaSnAsO5,1.7467999999999995
CaSnAu,0.0
CaSnAu2,0.0
CaSnBiO5,0.0
CaSnF4,3.4985999999999997
CaSnF5,0.0
CaSnF6,5.418
CaSnF6,5.3881
CaSnHg,0.0
CaSnN2,1.3772000000000002
CaSnO2,0.0
CaSnO3,2.9378999999999995
CaSnO3,2.3301
CaSnP2O7,3.7854
CaSnP2O7,3.6382000000000003
CaSnP2O7,3.6093
CaSnP6(HO)12,4.211
CaSnPd,0.0
CaSnPt,0.0
CaSnRh2,0.0
CaSnS3,0.11100000000000021
CaSnS3,1.7213
CaSnS3,1.8766999999999996
CaSnS3,1.584
CaSnS3,0.3999999999999999
CaSnS3,1.3995000000000002
CaSnS3,1.7350999999999999
CaSnS3,1.4207999999999994
CaSnS3,0.8106999999999998
CaSnS3,0.8479000000000005
CaSnS3,0.2654000000000001
CaSnS3,0.5291000000000001
CaSnS3,0.35160000000000036
CaSnS3,0.3010999999999999
CaSnS3,0.3979999999999997
CaSnS3,0.5271999999999997
CaSnS3,0.0
CaSnS3,0.7503000000000002
CaSnS3,1.6173000000000002
CaSnS3,0.9076
CaSnS3,0.7142
CaSnS3,0.42469999999999963
CaSnS3,1.0567000000000002
CaSnS3,1.1208
CaTa2(CuO4)2,0.48550000000000004
CaTa2Bi2O9,2.2304999999999997
CaTa2Bi2O9,2.9633000000000003
CaTa2CuO7,0.2957000000000001
CaTa2Ga2(CuO4)3,0.4802999999999997
CaTa2O6,3.4738999999999995
CaTa2O6,2.0982000000000003
CaTa2O6,2.4405
CaTa4O11,3.5437999999999996
CaTa5(PO4)9,3.1426999999999996
CaTaAlO5,3.8744
CaTaAlO5,3.9006999999999996
CaTaAlO5,3.5288
CaTaBiO5,3.5884
CaTaBiO5,3.8533
CaTaF7,5.0442
CaTaNO2,1.2321999999999997
CaTaNO2,1.6121999999999996
CaTaP(SO6)2,2.7031
CaTaTi(PO4)3,0.0
CaTb2Mn3O9,0.0
CaTb2O4,3.4316999999999998
CaTb2O4,2.8674
CaTb2O4,4.0827
CaTb3,0.0
CaTb3Mn4O12,0.0
CaTb4(PO4)4,3.9311000000000003
CaTb4Al2(FeO6)2,2.6212
CaTbEuNbO6,0.3152999999999997
CaTbEuNbO6,0.18240000000000034
CaTbEuSbO6,0.1396000000000006
CaTbF6,0.0
CaTbHg2,0.0
CaTbMn2O6,0.0
CaTbPd2,0.0
CaTbRh2,0.0
CaTcN3,1.4064999999999999
CaTcN3,0.4740000000000002
CaTcO3,0.0
CaTe,1.5535
CaTe,1.6323000000000003
CaTe2O5,3.3756
CaTe3O8,2.0176
CaTe4H4(O3F4)2,1.9457
CaTeCO5,3.8456
CaTeO3,3.5191000000000003
CaTeO3,3.1072
CaTeO3,2.895
CaTeO3,3.2993000000000006
CaTeO3,2.9425
CaTeO3,3.1794000000000002
CaTeO3,2.6673
CaTeO3,3.1241000000000003
CaTeO4,2.2712
CaTh(PO4)2,4.628500000000001
CaThBr6,2.0535
CaThI6,2.9664
CaThNb2O8,3.5626
CaThRh2,0.0
CaThV2O8,3.0505
CaTi(GeO3)2,1.2818
CaTi(GeO3)2,2.1745000000000005
CaTi(PO3)4,0.0
CaTi(SO4)3,2.1803
CaTi(Si2O5)2,0.0
CaTi(SiO3)2,0.0
CaTi2(CuO4)2,0.6372
CaTi2(HO3)2,2.7773
CaTi2(PO5)2,2.5527999999999995
CaTi2Be3(SiO4)3,0.0005000000000006111
CaTi2CoO7,0.31020000000000003
CaTi2F10,4.0996
CaTi2Fe2(PO4)6,0.0
CaTi2FeO6,1.3812000000000006
CaTi2MnO6,1.5799999999999996
CaTi2O4,0.0
CaTi2O5,2.7445
CaTi2O5,2.9078
CaTi2O6,0.0
CaTi2P2O9,0.0
CaTi2PbO6,2.2307
CaTi2PbO6,2.0012
CaTi2S5,1.2948
CaTi3O7,2.854
CaTi3P2(SO6)4,1.9436
CaTi3P3O13,0.0
CaTi3SiS5O24,1.6636
CaTi3V5O16,0.48419999999999996
CaTi3V5O16,0.8822999999999999
CaTi3V5O16,1.2749000000000001
CaTi4(CuO4)3,0.0
CaTi4(FeO4)3,1.6248
CaTi4(PO4)6,2.4899
CaTi4(PdO4)3,0.5335000000000001
CaTi4O6,0.0
CaTi4O8,0.0
CaTi4O9,2.6104000000000003
CaTi5O7,0.0
CaTi6(H2O7)2,0.0
CaTi8Mn(PO4)12,2.6538
CaTi8Zn2O19,2.6081000000000003
CaTiAg(PO4)3,0.27980000000000005
CaTiAs2O7,2.6932
CaTiAsO5,1.7906
CaTiBi(PO4)3,1.1193
CaTiBiO5,0.0
CaTiCo(PO4)3,0.9571000000000001
CaTiCr(PO4)3,2.3575
CaTiCu(PO4)3,0.0
CaTiCuO4,0.0
CaTiF4,0.0
CaTiF5,0.14679999999999982
CaTiF5,0.24659999999999993
CaTiF6,4.7085
CaTiF6,4.616700000000001
CaTiFe(PO4)3,0.0
CaTiFe5O8,2.0571
CaTiGeO5,2.7005
CaTiGeO5,2.7038
CaTiMn(PO4)3,0.0
CaTiMn(PO4)3,1.0527999999999997
CaTiMo(PO4)3,0.9904999999999999
CaTiN2,2.2528
CaTiNbInO6,0.0
CaTiNbSnO6,0.0
CaTiNi(PO4)3,0.0
CaTiNiP2O9,2.9967
CaTiO2,0.018200000000000216
CaTiO3,2.1378
CaTiO3,2.2434
CaTiO3,2.3053
CaTiO3,2.1586
CaTiO3,1.8284999999999996
CaTiO3,3.3276000000000003
CaTiP2O7,0.14339999999999975
CaTiP3WO12,0.6847999999999996
CaTiPO5,0.0
CaTiSb(PO4)3,0.1698000000000004
CaTiSiO5,2.9854999999999996
CaTiSiO5,2.9019999999999997
CaTiSn(PO4)3,0.0
CaTiV(PO4)3,1.3963
CaTl,0.0
CaTl2Cd,0.0
CaTl2O4,0.043900000000000716
CaTl3,0.0
CaTl6C2(O3F)2,0.049799999999999844
CaTl6C2(O3F)2,0.12300000000000022
CaTlBr3,3.7234
CaTlCl3,4.1784
CaTlCl3,3.9835
CaTlF3,4.4565
CaTlF3,4.4563999999999995
CaTlF3,4.6281
CaTlI3,3.2511
CaTm2(GeO3)4,3.1273
CaTm2O4,4.2171
CaTm2O4,3.8132
CaTm2O4,3.3400999999999996
CaTmCd2,0.0
CaTmHg2,0.0
CaTmIn2,0.0
CaTmMn2O6,0.0
CaTmPd2,0.0
CaTmPt2,0.0
CaTmRh2,0.0
CaTmZn2,0.0
CaU(MoO4)4,2.0011
CaU(PO4)2,0.0
CaU(PbO3)2,1.6803999999999997
CaU(SeO4)2,1.9467999999999999
CaU2(BO5)2,2.0258000000000003
CaU2S5,0.0
CaU2Se5,0.0
CaU2Si2H12O17,1.9307
CaU3Ti8O24,0.05930000000000035
CaUF6,0.0
CaUI6,0.15280000000000005
CaUO4,0.8934999999999995
CaUO4,2.1038999999999994
CaUTi2O7,0.0