formula,band_gap
Dy4InIr,0.0
Dy4InRh,0.0
Dy4Mg(CuO4)2,1.6364999999999998
Dy4Mg3Co2,0.0
Dy4MgCo,0.0
Dy4MgIr,0.0
Dy4MgNi,0.012600000000000389
Dy4MgRh,0.0
Dy4MgRu,0.0
Dy4MgS7,1.0637999999999996
Dy4MgTi2O10,0.0
Dy4MgTi2O10,0.12109999999999932
Dy4MgTi2O10,0.21689999999999987
Dy4MnS7,0.35970000000000013
Dy4MnSe7,0.4542999999999999
Dy4Ni12Sn25,0.0
Dy4Ni13C4,0.0
Dy4Ni3Bi8,0.0
Dy4NiB13,0.0
Dy4NiSn8,0.0
Dy4Sb3,0.0
Dy4Si2S3O7,2.6106
Dy4Te3N2,1.8172000000000001
Dy4Te3S4,1.3965999999999994
Dy4Te7,0.0
Dy4Zn5Ge6,0.0
Dy5(CoB3)2,0.0
Dy5(CoSn3)6,0.010399999999999743
Dy5(Ge5Ir2)2,0.0
Dy5(Ge5Rh2)2,0.0
Dy5(GeSb)2,0.0
Dy5(In2Ni)2,0.0
Dy5(In2Pd)2,0.0
Dy5(In2Pt)2,0.0
Dy5(MoO6)2,0.0
Dy5(ReO6)2,0.0
Dy5(Si5Ir2)2,0.0
Dy5(SiB4)2,0.0
Dy5(SiSb)2,0.0
Dy5(Sn3Os)6,0.0
Dy5(Sn3Rh)6,0.0
Dy5AgS8,1.7318000000000007
Dy5B2(O2F3)3,5.960999999999999
Dy5B2C5,0.0
Dy5B3O13,0.0
Dy5Bi11O24,2.6561999999999997
Dy5Bi3,0.0
Dy5BiAu2,0.0
Dy5BiPd2,0.0
Dy5BiPt2,0.0
Dy5C2Br9,0.7994000000000001
Dy5C2I9,1.4272
Dy5Cl11,0.0
Dy5Co19P12,0.0
Dy5Co2Bi,0.0
Dy5CoBi2,0.0
Dy5CoSb2,0.0
Dy5CuPb3,0.0
Dy5Ga3,0.0
Dy5Ge3,0.0
Dy5Ge3B,0.0
Dy5Ge3C,0.0
Dy5In3,0.0
Dy5Ir2,0.0
Dy5Ir3,0.0
Dy5Mg,0.0
Dy5Mg24,0.0
Dy5Mg5Al12(Fe2Si3)2,0.0
Dy5Ni2Bi,0.0
Dy5Ni2Sb,0.0
Dy5NiPb3,0.0
Dy5P12Ir19,0.0
Dy5P12Ru19,0.0
Dy5Pb3,0.0
Dy5Pb4,0.0
Dy5Pt3,0.0
Dy5Pt4,0.0
Dy5Rh3,0.0
Dy5Ru2,0.0
Dy5S7,0.0
Dy5Sb3,0.0
Dy5SbAu2,0.0
Dy5SbPd2,0.0
Dy5SbPt2,0.0
Dy5Sc5(Si5Ir2)4,0.0
Dy5Si2BO13,4.5395
Dy5Si3,0.0
Dy5Si3B,0.0
Dy5Si3C,0.0
Dy5Si4,0.0
Dy5Sn11,0.0
Dy5Sn13,0.0
Dy5Sn3,0.0
Dy5Sn4,0.0
Dy5Ti5O17,0.0
Dy5Tl3,0.0
Dy5Zr3(Ni4As3)4,0.0
Dy6(Ga3Co)7,0.0
Dy6Ag(GeS7)2,0.0
Dy6Al2SiS14,2.4669999999999996
Dy6Al43Cr4,0.0
Dy6Al43Mo4,0.038300000000000445
Dy6Al43V4,0.0
Dy6Al43W4,0.0
Dy6Al7Cu16,0.0
Dy6Co2Sn,0.0
Dy6CoTe2,0.0
Dy6Cu23,0.0
Dy6Fe23,0.0
Dy6FeBi2,0.0
Dy6FeSb2,0.0
Dy6FeTe2,0.0
Dy6Ga19Pt3,0.0
Dy6GaCo2,0.0
Dy6GaNi2,0.0
Dy6Ge3Se14,1.0556
Dy6H40N8O49,2.9558
Dy6InCo2,0.0
Dy6Mg(GeS7)2,2.1727
Dy6Mg(Sb5O12)2,0.3597999999999999
Dy6Mg(Sb5O12)2,0.593
Dy6Mg(Sb5O12)2,0.29159999999999986
Dy6Mg(Sb5O12)2,0.5510999999999999
Dy6Mn(SiS7)2,0.9866999999999999
Dy6Mn23,0.0
Dy6MnBi2,0.0
Dy6N8O33,0.016900000000000137
Dy6Nb4Al43,0.033500000000000085
Dy6Ni2Sn,0.0
Dy6Se11,0.5317000000000007
Dy6Ta4Al43,0.025000000000000355
Dy6Ti4Al43,0.0
Dy6Zn23,0.0
Dy7(CuTe4)3,0.32319999999999993
Dy7(TeIr)2,0.0
Dy7(TePd)2,0.0
Dy7(TePt)2,0.0
Dy7BP2O17,4.799099999999999
Dy7C2I12O,0.027099999999999902
Dy7Co6Sn23,0.0
Dy7In(CoGe3)4,0.0
Dy7Rh3,0.0
Dy7Ru2C11,0.0
Dy8Ga3Co,0.00010000000000021103
Dy8In3Co,0.0019000000000000128
Dy8Ni18P11,0.0
Dy8Rh5C12,0.0
Dy9(SbO)5,0.0
Dy9Al5S21,2.4394000000000005
Dy9Al5Se21,1.5427000000000004
Dy9B5S21,1.4641000000000002
DyAg,0.0
DyAg(WO4)2,3.1201
DyAg2,0.0
DyAg3,0.0
DyAgGe,0.0
DyAgH2C2SO9,2.9023
DyAgHg2,0.0
DyAgPb,0.0
DyAgS2,1.7002000000000002
DyAgSb2,0.0
DyAgSe2,0.47709999999999964
DyAgSe2,1.306
DyAgSn,0.0
DyAgSn2,0.0
DyAgTe2,1.0711999999999997
DyAgTe2,0.8957999999999995
DyAl,0.0
DyAl2,0.0
DyAl2Ni,0.0
DyAl3,0.0
DyAl3(BO3)4,5.543100000000001
DyAl3Ni2,0.0
DyAl4Ni,0.0
DyAl7Au3,0.0
DyAl7Fe5,0.0
DyAlAg2,0.0
DyAlAu,0.0
DyAlB14,0.0
DyAlCo,0.0
DyAlCo4,0.0
DyAlCu,0.0
DyAlCu4,0.0
DyAlFe,0.0
DyAlFe2,0.0
DyAlGa,0.0
DyAlGe,0.0
DyAlGe2O7,3.6402
DyAlNi,0.0
DyAlNi4,0.0
DyAlO3,5.1659999999999995
DyAlO3,5.723000000000001
DyAlO3,2.9483000000000006
DyAlPd,0.0
DyAlPt,0.0
DyAlSi,0.0
DyAlZn,0.0
DyAs,0.0
DyAsO4,3.6275000000000004
DyAsPd,0.0
DyAsPt,0.0
DyAsS,0.02880000000000038
DyAsS,None
DyAsSe,0.07819999999999983
DyAu,0.0
DyAu2,0.0
DyAu3,0.0
DyAu6,0.0
DyB12,0.0
DyB2,0.0
DyB2C,0.0
DyB2Ir3,0.0
DyB2Os,0.0
DyB2Rh2C,0.0
DyB2Rh3,0.0
DyB2Ru,0.0
DyB2Ru3,0.0
DyB3H18C2S,3.717
DyB3Mo,0.0
DyB4,0.0
DyB4(IrRh)2,0.0
DyB4Mo,0.2812999999999999
DyB4Os,0.0
DyB4Rh,0.0
DyB4Rh7,0.0
DyB4Ru,0.0
DyB4W,0.5661000000000005
DyB6,0.0
DyB7Mo3,0.0
DyBO3,5.0107
DyBO3,5.3594
DyBO3,4.514
DyBPd3,0.0
DyBRh3,0.0
DyBe13,0.0
DyBeCu4,0.0
DyBi,0.0
DyBi2BrO4,1.3290000000000002
DyBi2ClO4,1.3739
DyBi2IO4,1.3667999999999996
DyBi3(Ru2O7)2,0.0
DyBiPd,0.0
DyBiPt,0.0
DyBiRh,0.0
DyBiRu2O7,0.0
DyBr2,0.0
DyBr3,3.0029
DyC2,0.0
DyCO4,0.7540999999999999
DyCO4,0.10640000000000005
DyCd,0.0
DyCd2,0.0
DyCd3,0.0
DyCd6,0.0
DyCdAg2,0.0
DyCdAu,0.0
DyCdAu2,0.0
DyCdCu,0.0
DyCdGa,0.0
DyCdHg2,0.0
DyCdIn,0.0
DyCdNi4,0.0
DyCdPd2,0.0
DyCdPt2,0.0
DyCdRh2,0.0
DyCl3,3.8954
DyClO,5.1946
DyClO,4.349
DyClO,5.167300000000001
DyCo2,0.0
DyCo3,0.0
DyCo3B2,0.0
DyCo3P2,0.0
DyCo4B,0.0
DyCo5,0.0
DyCo5P3,0.0
DyCo5Si3,0.0
DyCoB4,0.0
DyCoC,0.0
DyCoC2,0.0
DyCoGe,0.0
DyCoNi,0.0
DyCoO3,1.1923999999999997
DyCoSi,0.0
DyCoSi2,0.0
DyCoSi2Rh,0.0
DyCoSn,0.0
DyCoSn2,0.0
DyCr2Si2C,0.0
DyCrB4,0.3833000000000002
DyCrGeO5,2.83
DyCrO3,2.2185000000000006
DyCrO4,0.2979999999999998
DyCrO5,0.5577
DyCrS3,0.22750000000000004
DyCrSb3,0.0
DyCrSe3,0.11660000000000004
DyCrTeO6,2.7169000000000003
DyCu,0.0
DyCu(MoO4)2,1.5262
DyCu(WO4)2,1.3993000000000002
DyCu(WO4)2,1.2412
DyCu2,0.0
DyCu4Ag,0.0
DyCu4Pd,0.0
DyCu5,0.0
DyCu5Sn,0.0
DyCu7,0.0
DyCuAs2,0.0
DyCuGe,0.0
DyCuPb,0.0
DyCuPbS3,1.5979
DyCuPbSe3,1.2086999999999994
DyCuS2,1.6324
DyCuS2,1.6783000000000001
DyCuSb2,0.0
DyCuSb2,0.34880000000000067
DyCuSe2,1.0667999999999997
DyCuSeO,1.1846000000000005
DyCuSi,0.0
DyCuSn,0.0
DyCuTe2,0.6222000000000003
DyCuTe2,0.1203000000000003
DyCuTe2ClO6,0.39460000000000006
DyEr,0.0
DyEr3,0.0
DyErAg2,0.0
DyErAl2,0.0
DyErAl4,0.0
DyErC4,0.0
DyErCd2,0.0
DyErCu2,0.0
DyErFe14B,0.0
DyErMn4,0.0
DyErO3,3.0896
DyErRh2,0.0
DyErRu2,0.0
DyErTe2,0.0
DyErTl2,0.0
DyErZn2,0.0
DyF3,7.7755
DyF3,7.8654
DyFe2,0.0
DyFe2Co2B,0.0
DyFe2SiC,0.0
DyFe3,0.0
DyFe3(BO3)4,2.2942
DyFe3(BO3)4,2.4135000000000004
DyFe4(CuO4)3,0.0
DyFe5,0.0
DyFe5Bi4O15,1.7930000000000001
DyFe5P3,0.0
DyFe6(Sn2Ge)2,0.0
DyFeB4,0.0
DyFeC2,0.0
DyFeCu,0.0
DyFeGe2,0.0
DyFeGe2O7,1.8317999999999999
DyFeNi,0.0
DyFeNi4,0.0
DyFeO3,0.9134000000000002
DyFeSi,0.0
DyGa,0.0
DyGa2,0.0
DyGa2Co3,0.0
DyGa2Cu3,0.0
DyGa2Ni,0.0
DyGa2Ni3,0.0
DyGa2Pd,0.0
DyGa3,0.0
DyGa3(BO3)4,4.4185
DyGa3Cu,0.0
DyGa3Ni2,0.0
DyGa3Ru,0.0
DyGa4Ni,0.0
DyGa5Co,0.0
DyGa6,0.0
DyGaAg,0.0
DyGaCo,0.0
DyGaCo4,0.0
DyGaCu,0.0
DyGaFeCo3,0.0
DyGaGe2O7,3.3061
DyGaNi,0.0
DyGaO3,3.6351000000000004
DyGaO3,2.8659
DyGaPd,0.0
DyGaPd2,0.0
DyGaPt,0.0
DyGaRh2,0.0
DyGe,0.0
DyGe2Ir,0.0
DyGe2Pd,0.0
DyGe2Pt,0.0
DyGe3,0.0
DyGeAu,0.0
DyGeIr,0.0
DyGePd,0.0
DyGePd2,0.0
DyGePt,0.0
DyGeRh,0.0
DyGeRu,0.0
DyH2,0.0
DyH3,0.0047999999999999154
DyH4I3O11,3.7184999999999997
DyH6C6Cl3(O3F2)3,4.1943
DyH9C5(NO4)2,4.6355
DyH9C5(NO4)2,4.5207
DyHO2,3.9345
DyHO2,4.5215
DyHO2,4.728
DyHSO5,5.5844
DyHSe,1.4876999999999994
DyHfF7,6.8513
DyHg,0.0
DyHg2,0.0
DyHg3,0.0
DyHo,0.0
DyHo3,0.0
DyHoAl4,0.0
DyHoC4,0.0
DyHoHg2,0.0
DyHoIn2,0.0
DyHoIr2,0.0
DyHoMg2,0.0
DyHoMn4,0.0
DyHoO3,2.8424
DyHoRu2,0.0
DyHoTl2,0.0
DyHoZn2,0.0
DyI3,2.1725000000000003
DyIn,0.0
DyIn2Ni,0.0
DyIn2Ni9,0.0
DyIn2Pd,0.0
DyIn3,0.0
DyIn3Cu2,0.0
DyIn5Co,0.0
DyIn5Rh,0.0
DyIn7Cu5,0.0
DyInAg2,0.0
DyInAu,0.0
DyInAu2,0.0
DyInCo2,0.0
DyInCo4,0.0
DyInCu,0.0
DyInCu2,0.0
DyInCu4,0.0
DyInIr,0.0
DyInNi,0.0
DyInO3,2.6229999999999998
DyInO3,1.9870999999999999
DyInPd2,0.0
DyInPt,0.0
DyInPt2,0.0
DyInPt4,0.0
DyInRh,0.0
DyInRh2,0.0
DyIr2,0.0
DyIr3,0.0
DyLu3,0.0
DyLuAg2,0.0
DyLuCd2,0.0
DyLuCu2,0.0
DyLuHg2,0.0
DyLuIn2,0.0
DyLuIr2,0.0
DyLuMg2,0.0
DyLuO3,4.6339999999999995
DyLuRh2,0.0
DyLuRu2,0.0
DyLuTl2,0.0
DyLuZn2,0.0
DyMg,0.0
DyMg(BO2)5,6.088900000000001
DyMg149,0.26670000000000016
DyMg2,0.0
DyMg2Cr3S8,0.8209
DyMg2Cu9,0.0
DyMg2Mn3S8,0.0
DyMg2Sc,0.0
DyMg2Ti3S8,0.0
DyMg2V3S8,0.0
DyMg3,0.0
DyMg5,0.0
DyMgAg,0.0
DyMgAg2,0.0
DyMgAu,0.0
DyMgAu2,0.0
DyMgCd2,0.0
DyMgCrS4,0.8414999999999999
DyMgCu(WO4)2,1.6794000000000002
DyMgCu(WO4)2,1.7325
DyMgGa,0.0
DyMgHg2,0.0
DyMgIn,0.0
DyMgMnS4,0.0
DyMgPd,0.0
DyMgRh2,0.0
DyMgSn,0.0
DyMgTiS4,0.0
DyMgTl,0.0
DyMgTl2,0.0
DyMgVS4,0.0
DyMgZn2,0.0
DyMn12,0.0
DyMn2,0.0
DyMn2(Cr2Ge3)2,0.0
DyMn2O4,0.0
DyMn2O5,0.7557
DyMn2SiC,0.0
DyMn2SiGe,0.0
DyMn4(CrGe3)2,0.0
DyMn4(CuO4)3,0.0
DyMn6(Sn2Ge)2,0.0
DyMn6GaGe5,0.0
DyMnAl,0.0
DyMnB4,0.0
DyMnCrO5,0.05630000000000024
DyMnCu4P3,0.0
DyMnFe,0.0
DyMnFeO5,1.146
DyMnGa,0.0
DyMnGe,0.0
DyMnO3,0.41339999999999977
DyMnO3,0.0
DyMnSi,0.0
DyMnSn2,0.0
DyMoBrO4,1.8414
DyMoC2,0.0
DyMoClO4,2.7283000000000004
DyMoO4F,3.7538
DyMoO5,2.352
DyN,0.04309999999999947
DyN3O10,0.24350000000000005
DyNbO4,3.6484
DyNbO4,3.2613
DyNbO4,3.6435000000000004
DyNbO4,3.4901999999999997
DyNbO4,3.2508999999999997
DyNbO4,3.9158
DyNbRu2,0.0
DyNi,0.0
DyNi2,0.0
DyNi2B2C,0.0
DyNi3,0.0
DyNi3Sn2,0.0
DyNi4Au,0.0
DyNi4B,0.0
DyNi4Sn,0.0
DyNi5,0.0
DyNiAs,0.0
DyNiB4,0.0
DyNiBi,0.20840000000000014
DyNiC2,0.0
DyNiGe,0.0
DyNiGe2,0.0
DyNiGe3,0.0
DyNiO3,0.0
DyNiP,0.0
DyNiSb,0.31230000000000047
DyNiSb2,0.0
DyNiSn,0.0
DyNiSn2,0.0
DyNiSn4,0.0
DyNpRu2,0.0
DyO2,0.0
DyOF,5.020200000000001
Er6Al43W4,0.0
Er6Al7Cu16,0.0
Er6Co2Sn,0.0
Er6Co30P19,0.0
Er6CoBi2,0.0
Er6CoBr10,0.017600000000000282
Er6CoTe2,0.0
Er6Fe23,0.0
Er6FeBi2,0.0
Er6FeSb2,0.0
Er6Ga17Pd5,0.0
Er6Ga17Pt5,0.0
Er6GaCo2,0.0
Er6GaNi2,0.0
Er6Ge11,0.0
Er6H40N8O49,2.9432
Er6I7,0.0
Er6InCo2,0.0
Er6IrI10,0.0
Er6Mg(GeS7)2,2.0932000000000004
Er6MgTa2O14,0.0
Er6Mn(GeS7)2,1.0094000000000003
Er6Mn(SiS7)2,0.9203999999999999
Er6Mn23,0.0
Er6Mn4Al43,0.0
Er6MnBi2,0.0
Er6MnSb2,0.0
Er6MnTe2,0.0
Er6Nb4Al43,0.0
Er6Ni20As13,0.0
Er6Ni20P13,0.0
Er6Ni2Sn,0.0
Er6NiI10,0.6135000000000002
Er6Si11N20O,3.6388999999999996
Er6Ta4Al43,0.0
Er6Te2Ru,0.0
Er6Ti4Al43,0.0
Er6Zn23,0.0
Er6Zn23Ge,0.0
Er7(AgTe)2,0.0
Er7(CuTe4)3,0.3814000000000002
Er7(NiTe)2,0.0
Er7(TeAu)2,0.0
Er7(TeIr)2,0.0
Er7(TePd)2,0.0
Er7(TePt)2,0.0
Er7(TeRh)2,0.0
Er7C2I12N,1.1629999999999998
Er7Co6Sn23,0.0
Er7CoI12,0.43989999999999974
Er7FeI12,0.0
Er7IrI12,0.3853
Er7Rh3,0.0
Er7Ru2C11,0.0
Er8Ga3Co,0.010299999999999976
Er8In3Co,0.0020999999999995467
Er8Mn3Mo5O28,0.6660000000000004
Er8Ni18P11,0.0
Er8Rh5C12,0.0
Er9(FeGe)10,0.0
Er9Al5S21,2.3135
Er9B5S21,1.4741
Er9Ge4S21,0.0
Er9MnS14,0.0
ErAg,0.0
ErAg(PSe3)2,1.7618
ErAg(WO4)2,2.9104
ErAg2,0.0
ErAg3,0.0
ErAgGe,0.0
ErAgHg2,0.0
ErAgPb,0.0
ErAgS2,0.7963999999999998
ErAgS2,1.4169
ErAgS2,0.0
ErAgS2,2.1143
ErAgS2,0.6724999999999999
ErAgSe2,0.0
ErAgSe2,0.40900000000000025
ErAgSe2,1.2801
ErAgSn,0.0
ErAgSn2,0.0
ErAgTe2,1.1178000000000003
ErAgTe2,0.8936000000000002
ErAl,0.0
ErAl2,0.0
ErAl2Ni,0.0
ErAl3,0.0
ErAl3(BO3)4,5.616599999999999
ErAl3Ni2,0.0
ErAl4Ge2Au,0.0
ErAl4Ni,0.0
ErAl7Au3,0.0
ErAl7Fe5,0.0
ErAl9(Fe2Si3)2,0.0
ErAlAg2,0.0
ErAlAu,0.0
ErAlB14,0.0
ErAlB4,0.0
ErAlCo,0.0
ErAlCu,0.0
ErAlCu4,0.0
ErAlFe,0.0
ErAlGa,0.0
ErAlGe,0.0
ErAlGeO5,3.7548000000000004
ErAlNi,0.0
ErAlNi4,0.0
ErAlO3,3.0097000000000005
ErAlO3,3.5603999999999996
ErAlO3,5.803000000000001
ErAlPd,0.0
ErAlPt,0.0
ErAlSi,0.0
ErAlSi,0.020199999999999996
ErAlZn,0.0
ErAs,0.0
ErAsO4,3.5786000000000002
ErAsPd,0.0
ErAsPt,0.0
ErAsS,0.0
ErAsSe,0.0
ErAsSe,0.48690000000000033
ErAu,0.0
ErAu2,0.0
ErAu3,0.0
ErAu4,0.0
ErB12,0.0
ErB2,0.0
ErB2Ir3,0.0
ErB2Os,0.0
ErB2Rh2C,0.0
ErB2Rh3,0.0
ErB2Ru,0.0
ErB2Ru3,0.0
ErB3H18C2S,3.7953
ErB3Mo,0.0
ErB4,0.0
ErB4(IrRh)2,0.0
ErB4Mo,0.5880999999999998
ErB4Os,0.0
ErB4Rh,0.0
ErB4Rh7,0.0
ErB4Ru,0.0
ErB4W,0.5911
ErB6,0.0
ErB7Mo3,0.0
ErBO3,5.131399999999999
ErBO3,5.6534
ErBO3,4.563000000000001
ErBPd2Rh,0.0
ErBPd3,0.0
ErBPtRh2,0.0
ErBRh3,0.0
ErBe13,0.0
ErBi,0.0
ErBi2BrO4,1.3570000000000002
ErBi2ClO4,1.3769000000000005
ErBi2IO4,1.375
ErBi3,0.0
ErBiO3,2.47
ErBiO3,3.1136000000000004
ErBiPd,0.0
ErBiPt,0.0
ErBiRh,0.0
ErBiW2O9,2.6869
ErBiW2O9,2.5433999999999997
ErBrO,4.382000000000001
ErC2,0.0
ErC3O8,0.22220000000000018
ErCO4,0.7939999999999999
ErCO4,0.1383000000000001
ErCd,0.0
ErCd2,0.0
ErCd2Cu,0.0
ErCd3,0.0
ErCd6,0.0
ErCdAg2,0.0
ErCdAu,0.0
ErCdAu2,0.0
ErCdCu4,0.0
ErCdGa,0.0
ErCdHg2,0.0
ErCdIn,0.0
ErCdNi4,0.0
ErCdPd2,0.0
ErCdPt2,0.0
ErCdRh2,0.0
ErCl2,0.0
ErCl3,3.7781
ErClO,5.1904
ErClO,5.2575
ErCo(CN)6,4.2943
ErCo2,0.0
ErCo2(B2Rh)2,0.0
ErCo3,0.0
ErCo3B2,0.0
ErCo3Ge2,0.0
ErCo3Ni2,0.0
ErCo3P2,0.0
ErCo3Si2,0.0
ErCo4B,0.0
ErCo5,0.0
ErCo5P3,0.0
ErCo5Si3,0.0
ErCo9Si2,0.0
ErCo9Si4,0.0
ErCoB4,0.0
ErCoC,0.0
ErCoC2,0.0
ErCoGe,0.0
ErCoGe2,0.0
ErCoNi,0.0
ErCoO3,1.4471000000000003
ErCoRu,0.0
ErCoSi,0.0
ErCoSi2,0.0
ErCoSi3,0.0
ErCoSn,0.0
ErCoSn2,0.0
ErCr2Si2C,0.0
ErCrB4,0.16109999999999935
ErCrGeO5,2.8836999999999997
ErCrHO5,2.0082999999999998
ErCrO3,0.25710000000000033
ErCrO4,0.6012000000000004
ErCrO4,0.3003999999999998
ErCrTeO6,2.6495
ErCu,0.0
ErCu(MoO4)2,1.4141000000000004
ErCu(WO4)2,1.4556
ErCu(WO4)2,1.0878999999999994
ErCu(WO4)2,1.2269
ErCu2,0.0
ErCu3Se2ClO8,0.0
ErCu4Ag,0.0
ErCu4Au,0.0
ErCu4Pd,0.0
ErCu5,0.0
ErCu5Sn,0.0
ErCuAs2,0.0
ErCuGe,0.0
ErCuNi,0.0
ErCuP2,0.0
ErCuPb,0.0
ErCuPbS3,1.5553
ErCuPbSe3,1.1330999999999998
ErCuS2,1.6292999999999997
ErCuS2,1.8173
ErCuSb2,0.0
ErCuSe2,1.0495999999999999
ErCuSi,0.0
ErCuSn,0.0
ErCuTe2,0.3044000000000002
ErCuTe2,0.6612999999999998
ErCuTe2BrO6,0.0
ErCuTe2ClO6,0.39270000000000005
ErF3,7.6163
ErFe10Mo2N,0.0
ErFe2,0.0
ErFe2Co2B,0.0
ErFe2SiC,0.0
ErFe3,0.0
ErFe3(BO3)4,2.4089
ErFe4(CuO4)3,0.0
ErFe4B,0.0
ErFe5P3,0.0
ErFe6(Sn2Ge)2,0.0
ErFeB4,0.0
ErFeC2,0.0
ErFeCo,0.0
ErFeCu,0.0
ErFeGe2,0.0
ErFeGe2O7,2.6630000000000003
ErFeNi,0.0
ErFeNi4,0.0
ErFeO3,1.5703
ErFeRu,0.0
ErGa,0.0
ErGa2,0.0
ErGa2Co3,0.0
ErGa2Cu3,0.0
ErGa2Ni,0.0
ErGa2Ni3,0.0
ErGa2Pd,0.0
ErGa3,0.0
ErGa3Os,0.0
ErGa3Ru,0.0
ErGa4Ni,0.0
ErGa5Co,0.0
ErGa6,0.0
ErGaAg,0.0
ErGaAu,0.0
ErGaCo,0.0
ErGaIr,0.0
ErGaNi,0.0
ErGaO3,3.6630999999999996
ErGaO3,2.9001
ErGaPd,0.0
ErGaPt,0.0
ErGaRh,0.0
ErGaRh2,0.0
ErGe,0.0
ErGe2Ir,0.0
ErGe2Os,0.0
ErGe2Pt,0.0
ErGe3,0.0
ErGeAu,0.0
ErGeBiO5,3.3459000000000003
ErGeIr,0.0
ErGePd,0.0
ErGePd2,0.0
ErGePt,0.0
ErGeRh,0.0
ErGeRh2,0.015699999999999825
ErGeRu,0.0
ErH,0.0
ErH(SO4)2,5.5488
ErH2,0.0
ErH2Cl3O13,5.2042
ErH2ClO2,4.921099999999999
ErH3,0.0
ErH3(SO4)3,5.494300000000001
ErH3(SO4)3,5.867299999999999
ErH4I3O11,3.6991
ErH9C5(NO4)2,4.4956
ErHCl,0.0
ErHO2,3.9885
ErHSO5,5.6272
ErHSe,1.4817000000000005
ErHfF7,6.858599999999999
ErHfIr2,0.0
ErHfRu2,0.0
ErHg,0.0
ErHg2,0.0
ErHg3,0.0
ErI3,2.0376000000000003
ErIn,0.0
ErIn2Ni9,0.0
ErIn2Pd,0.0
ErIn2Sn,0.0
ErIn3,0.0
ErIn5Co,0.0
ErIn5Rh,0.0
ErInAg2,0.0
ErInAu,0.0
ErInAu2,0.0
ErInCo4,0.0
ErInCu,0.0
ErInCu2,0.0
ErInCu4,0.0
ErInNi,0.0
ErInNi4,0.0
ErInO3,2.5532
ErInO3,1.9560000000000004
ErInPd,0.0
ErInPd2,0.0
ErInPt,0.0
ErInPt2,0.0
ErInPt4,0.0
ErInRh,0.0
ErInRh2,0.0
ErIr,0.0
ErIr2,0.0
ErLu(B2Ru)2,0.0
ErLu3,0.0
ErLuCu2,0.0
ErLuHg2,0.0
ErLuMg2,0.0
ErLuO3,4.5249999999999995
ErLuPd2,0.0
ErLuRh2,0.0
ErLuRu2,0.0
ErLuZn2,0.0
ErMg,0.0
ErMg(BO2)5,6.1636
ErMg149,0.2803
ErMg2,0.0
ErMg2Sc,0.0
ErMg3,0.0
ErMg5,0.0
ErMgAg,0.0
ErMgAg2,0.0
ErMgAu,0.0
ErMgAu2,0.0
ErMgCd2,0.0
ErMgGa,0.0
ErMgHg2,0.0
ErMgIn,0.0
ErMgPd,0.0
ErMgPd2,0.0
ErMgRh2,0.0
ErMgSn,0.0
ErMgTl,0.0
ErMgTl2,0.0
ErMgZn2,0.0
ErMn12,0.0
ErMn2,0.0
ErMn2(Fe2Sn3)2,0.0
ErMn2O4,0.0
ErMn2O5,0.7631999999999999
ErMn2SiC,0.0
ErMn3(FeSn2)3,0.0
ErMn4(CuO4)3,0.0
ErMn4(FeSn3)2,0.0
ErMn6(Sn2Ge)2,0.0
ErMnAl,0.0
ErMnB4,0.0
ErMnFe,0.0
ErMnFeO4,0.0
ErMnFeO5,1.1587
ErMnGa,0.0
ErMnGe,0.0
ErMnNi4,0.0
ErMnO3,0.0
ErMnO3,0.2488999999999999
ErMnSi,0.0
ErMnSn2,0.0
ErMoBrO4,1.9042
ErMoC2,0.0
ErMoClO4,2.4295
ErMoO4F,3.512
ErMoO5,0.20009999999999994
ErN,0.12429999999999986
ErNbO4,3.4799
ErNbO4,3.4807
ErNbOs2,0.0
ErNbRu2,0.0
ErNi,0.0
ErNi2,0.0
ErNi2B2C,0.0
ErNi3,0.0
ErNi3Ge2,0.0
ErNi4,0.0
ErNi4Au,0.0
ErNi4B,0.0
ErNi5,0.0
ErNi5Ge3,0.0
ErNi7B3,0.0
ErNiAs,0.0
ErNiB4,0.0
ErNiBC,0.0
ErNiBi,0.16999999999999993
ErNiC2,0.0
ErNiGe,0.0
ErNiGe2,0.0
ErNiGe3,0.0
ErNiO3,0.34040000000000026
ErNiO3,0.0
ErNiP,0.0
ErNiPb,0.0
ErNiSb,0.27390000000000025
ErNiSn,0.0
ErNiSn2,0.0
ErNiSn4,0.0
ErO2,0.0
ErOF,5.2561
ErOs2,0.0
ErP,0.0
ErP2H3O10,0.6637
ErP4HO12,5.554600000000001
ErP5O14,5.444100000000001
ErP5O14,5.2303
ErPH5CO7,3.7291000000000003
ErPO4,5.919600000000001
ErPPd,0.0
ErPRu2C,0.0
ErPS,0.2325999999999997
ErPS4,2.1442000000000005
ErPa3,0.0
ErPaO4,2.4341
ErPaOs2,0.0
ErPaRu2,0.0
ErPaTc2,0.0
ErPb3,0.0
ErPbAu,0.0
ErPd,0.0
ErPd2Pb,0.0
ErPd3,0.0
ErPd3S4,0.0
ErPdPb,0.0
ErPt,0.0
ErPt2,0.0
ErPt3,0.0
ErPt5,0.0
ErPtF7,2.2785
ErPu3,0.0
ErRe2,0.0
ErRe2SiC,0.0
ErReB4,0.0
ErRh,0.0
ErRh2,0.0
ErRh2Pb,0.0
ErRh3C,0.0
ErRh5,0.0
ErRhO3,0.9642
ErRu2,0.0
ErRu3C,0.0
ErS,0.0
ErS2,0.0
ErS2,0.3512000000000004
ErSCl,2.9329
ErSF,1.3243999999999998
ErSb,0.0
ErSb3,0.0
ErSbIr,0.0
ErSbMo2O9,3.2222999999999997
ErSbO4,2.3823999999999996
ErSbO4,2.2761000000000005
ErSbPd,0.20929999999999982
ErSbPt,0.0
ErSbRh,0.0
ErSbRh2,0.0
ErSc(BO3)2,4.449
ErScO3,4.4171
ErScRu2,0.0
ErScS3,1.7554999999999996
ErScZn2,0.0
ErSe,0.0
ErSe2,0.0
ErSeClO3,4.3487
ErSeF,2.112
ErSeI,2.309
ErSeO3F,4.3039000000000005
ErSi,0.0
ErSi2,0.0
ErSi2Ni,0.0
ErSi2Rh3,0.0
ErSi3Ni,0.0
ErSi3Ni5,0.0
ErSi3Rh5,0.0
ErSiAg,0.0
ErSiIr,0.0
ErSiNi,0.0
ErSiNi3,0.0
ErSiOs2C,0.0
ErSiPd,0.0
ErSiPd2,0.0
ErSiPt,0.0
ErSiRh,0.0
ErSiRh2,0.0
ErSiRu,0.0
ErSiRu2C,0.0
ErSn2,0.0
ErSn3,0.0
ErSnAu,0.0
ErSnAu,0.006099999999999994
ErSnGe,0.0
ErSnIr,0.0
ErSnPd,0.0
ErSnPd2,0.0
ErSnPt,0.0
ErSnPt2,0.0
ErSnRh,0.0
ErSnRh2,0.0
ErSnRu2,0.0
ErTa3O9,3.0096000000000003
ErTa3O9,2.6546000000000003
ErTa5Ag2O15,2.5084999999999997
ErTa7O19,3.1747000000000005
ErTaO4,4.050700000000001
ErTaO4,4.0517
ErTaOs2,0.0
ErTaRu2,0.0
ErTc2,0.0
ErTc2W,0.20509999999999984
ErTe,0.0
ErTe2,0.0
ErTe3,0.0
ErTeAs,0.36190000000000033
ErTh,0.0
ErThCN,0.0
ErThFe14B,0.0
ErThRe4,0.0
ErThRu2,0.0
ErThTc2,0.0
ErTiClO3,3.1421
ErTiCo11,0.0
ErTiFe11,0.0
ErTiFe11C,0.0
ErTiFe11N,0.0
ErTiFe8Co3,0.0
ErTiGe,0.0
ErTiO3,0.0
ErTiSi,0.0
ErTl,0.0
ErTl(MoO4)2,3.252
ErTl(PSe3)2,1.4836
ErTl(WO4)2,2.9076999999999997
ErTl2P2Se7,1.0722
ErTl3,0.0
ErTlCu,0.0
ErTlO2,1.3714999999999997
ErTlPd,0.0
ErTlRh2,0.0
ErTlS2,1.4109000000000003
ErTlS2O9,0.2634000000000001
ErTlSe2,1.2151000000000005
ErTlTe2,1.0350000000000001
ErTlZn,0.0
ErTm3,0.0
ErTmAg2,0.0
ErTmCd2,0.0
ErTmCu2,0.0
ErTmHg2,0.0
ErTmIn2,0.0
ErTmMg2,0.0
ErTmPd2,0.0
ErTmRu2,0.0
ErTmTl2,0.0
ErTmZn2,0.0
ErU2S3O2,0.0
ErUN2,0.0
ErUTe4,0.0
ErUTe6,0.0
ErV2Fe10N,0.0
ErVB4,0.0
ErVO3,1.5838
ErVO4,2.7173
ErVO4,2.9661
ErWBrO4,2.7085
ErWC2,0.0
ErWClO4,3.5688999999999997
ErWO5,0.0
ErZn,0.0
ErZn12,0.0
ErZn2,0.0
ErZn3,0.0
ErZn5,0.0
ErZnAsO,1.1517000000000008
ErZnCuP2,0.1001000000000003
ErZnGa,0.0
ErZnGe,0.0
ErZnIn,0.0
ErZnNi,0.0
ErZnPd,0.0
ErZnPd2,0.0
ErZnPt,0.0
ErZnRh,0.0
ErZnRh2,0.0
ErZnSn,0.0
ErZr,0.0
ErZr11Si11PO48,4.0268
ErZr6(PO4)9,3.6848
ErZrF7,5.8927
ErZrRu2,0.0
ErZrSb,0.0
Eu,0.0
Eu(Ag2Sb)2,0.0
Eu(AgGe)2,0.0
Eu(Al10V)2,0.0
Eu(Al2Cu)4,0.0
Eu(Al2Fe)4,0.0
Eu(Al4Fe)2,0.0
Eu(AlAu)2,0.0
Eu(AlCl4)2,1.6997
Eu(AlGa)2,0.0
Eu(AlGe)2,0.0
Eu(AlS2)2,1.1797000000000004
Eu(AlSe2)2,1.0021999999999998
Eu(AlSi)2,0.0
Eu(AlZn)2,0.0
Eu(AsPd)2,0.0
Eu(AsPt)2,0.0
Eu(AsRh)2,0.0
Eu(AsRu)2,0.0
Eu(BC)2,0.0
Eu(BH4)2,1.5599
Eu(BH4)2,1.572
Eu(BH4)2,1.3830999999999998
Eu(BIr)2,0.0
Eu(BIr)4,0.0
Eu(BO2)2,0.29029999999999934
Eu(BO2)3,0.0
Eu(BOs)4,0.0
Eu(BRu)4,0.0
Eu(BS2)2,1.0166000000000004
Eu(BiPd)2,0.0
Eu(BiS2)2,0.16769999999999996
Eu(BiSe2)2,0.05410000000000004
Eu(C2N3)3,0.0
Eu(CdAs)2,0.0
Eu(CdP)2,0.0
Eu(CdSb)2,0.0
Eu(ClO4)3,0.0
Eu(CoAs)2,0.0
Eu(CoGe)2,0.0
Eu(CoP)2,0.0
Eu(CoSi)2,0.0
Eu(CrAs)2,0.0
Eu(Cu2As)2,0.0
Eu(CuGe)2,0.0
Eu(CuO2)2,0.0
Eu(CuSb)2,0.0
Eu(CuSi)2,0.0
Eu(CuSn)2,0.0
Eu(DyS2)2,0.13949999999999996
Eu(DySe2)2,0.16570000000000018
Eu(ErS2)2,0.0
Eu(ErS2)2,0.4659999999999993
Eu(ErSe2)2,0.1958000000000002
Eu(FeAs)2,0.0
Eu(FeP)2,0.0
Eu(FeP3)4,0.0
Eu(FeSi)2,0.0
Eu(Ga4Co)2,0.0
Eu(Ga4Ir)2,0.0
Eu(Ga4Rh)2,0.0
Eu(GaAs)2,0.02389999999999981
Eu(GaGe2)2,0.0
Eu(GaP)2,0.0
Eu(GaS2)2,0.399
Eu(GaS2)2,0.23430000000000017
Eu(GaSb)2,0.0
Eu(GaSe2)2,0.0
Eu(GaSe2)2,0.08359999999999967
Eu(GaTe2)2,0.0
Eu(GdS2)2,0.24129999999999985
Eu(Ge3Pt)4,0.0
Eu(GeAu)2,0.0
Eu(GeIr)2,0.0
Eu(GePt)2,0.0
Eu(GeRh)2,0.0
Eu(GeRu)2,0.0
Eu(HO)3,0.0
Eu(HoS2)2,0.0
Eu(HoSe2)2,0.1142000000000003
Eu(IO3)3,0.0
Eu(In2Ag)4,0.0
Eu(In2Au)2,0.0
Eu(In4Ir)2,0.0
Eu(In4Rh)2,0.0
Eu(InAs)2,0.0
Eu(InAu)3,0.0
Eu(InS2)2,0.0
Eu(InSe2)2,0.07860000000000023
Eu(LuS2)2,0.3838999999999997
Eu(LuSe2)2,0.14280000000000026
Eu(Mg4Al3)4,0.0
Eu(MgAs)2,0.0
Eu(MgBi)2,0.0
Eu(MgGa)2,0.0
Eu(MgGe)3,0.0
Eu(MgH3)2,0.0
Eu(MgP)2,0.0
Eu(MgSb)2,0.0
Eu(MnAs)2,0.0
Eu(MnGe)2,0.0
Eu(MnP)2,0.0
Eu(MnSb)2,0.0
Eu(Mo3S4)2,0.0
Eu(Mo3Se4)2,0.0
Eu(NO3)3,0.0
Eu(Ni2B)6,0.0
Eu(Ni3S4)2,0.0
Eu(Ni5P3)2,0.0
Eu(NiAs)2,0.0
Eu(NiGe)2,0.0
Eu(NiP)2,0.0
Eu(NiSb)2,0.0
Eu(P3Ru)4,0.0
Eu(PIr)2,0.3360999999999992
Eu(PO3)3,0.0
Eu(POs)2,0.0
Eu(PPd)2,0.0
Eu(PRh)2,0.0
Eu(PRu)2,0.0
Eu(ReO4)2,0.4788
Eu(Sb3Os)4,0.0
Eu(Sb3Ru)4,0.0
Eu(SbPd)2,0.0
Eu(SbS2)2,0.13949999999999996