formula,band_gap
Li2Mn3VO8,0.0
Li2Mn3VO8,0.38219999999999965
Li2Mn3VO8,0.5
Li2Mn3WO8,0.0
Li2Mn3WO8,0.7557999999999998
Li2Mn3ZnO8,1.2898999999999998
Li2Mn4N3,0.0
Li2Mn4O3F8,0.06819999999999998
Li2Mn4O5F3,0.254
Li2Mn4O5F3,0.0
Li2Mn4O7F,0.0
Li2Mn4O9,0.0
Li2Mn4OF8,1.2026000000000001
Li2Mn4OF8,2.1717999999999997
Li2Mn4OF8,1.1865
Li2Mn4OF8,2.0338
Li2Mn4P4O15,3.0924000000000005
Li2Mn4Si4O13,2.3459000000000003
Li2Mn5(CuO6)2,0.06130000000000013
Li2Mn5(FeO6)2,0.28669999999999973
Li2Mn5(FeO6)2,0.2856000000000001
Li2Mn5(PO4)4,3.0979999999999994
Li2Mn5(Si2O5)6,3.8963
Li2Mn5(Si2O7)2,0.0
Li2Mn5F17,0.18720000000000003
Li2Mn5O10,0.0
Li2Mn5O12,0.0
Li2Mn5Si5O16,2.1642
Li2Mn7(P2O7)4,3.529
Li2Mn7F16,2.6388
Li2Mn7F18,0.6911
Li2Mn7O12,0.2588999999999997
Li2MnAl2O6,1.7195999999999998
Li2MnAlO4,0.7265000000000001
Li2MnAsCO7,0.48460000000000003
Li2MnBAsO7,0.49169999999999997
Li2MnBO4,0.49060000000000015
Li2MnBO4,0.6277000000000001
Li2MnBPO7,0.49470000000000003
Li2MnBr4,1.6389999999999998
Li2MnBr4,1.7801
Li2MnBr4,1.62
Li2MnBr4,1.4413999999999998
Li2MnCO4,2.1318
Li2MnCO5,0.5015000000000001
Li2MnCSO7,3.9814
Li2MnCSO7,3.8191999999999995
Li2MnCl4,1.8782
Li2MnCo(PO4)2,2.4608999999999996
Li2MnCo3O8,0.0
Li2MnCo3O8,1.4201
Li2MnCo3O8,0.3292999999999999
Li2MnCo3O8,0.13760000000000017
Li2MnCo3O8,0.8725000000000003
Li2MnCo3O8,0.006399999999999961
Li2MnCoO4,0.7124999999999999
Li2MnCoO4,0.6204999999999998
Li2MnCoO4,1.1306000000000003
Li2MnCoO4,0.0
Li2MnCoO4,0.8788
Li2MnCoO4,1.044
Li2MnCoO4,0.9668000000000001
Li2MnCoO4,0.7612999999999999
Li2MnCoO4,0.6204000000000001
Li2MnCoO4,0.5258000000000003
Li2MnCoO4,0.5369000000000002
Li2MnCoO4,0.05229999999999979
Li2MnCoO4,0.6886999999999999
Li2MnCoO4,0.27239999999999975
Li2MnCoO4,0.1051000000000002
Li2MnCoO4,0.45169999999999977
Li2MnCoO4,0.5943
Li2MnCoO4,0.16820000000000013
Li2MnCoO4,0.5288999999999997
Li2MnCoO4,0.013199999999999878
Li2MnCoO4,0.3399000000000001
Li2MnCoO4,0.08130000000000015
Li2MnCoO4,0.6837
Li2MnCr(PO4)2,1.9013
Li2MnCr2O6,1.0351
Li2MnCr2O6,0.5196999999999998
Li2MnCr3O8,0.9677999999999998
Li2MnCr3O8,0.2761999999999998
Li2MnCr3O8,0.0
Li2MnCr3O8,0.08610000000000007
Li2MnCr3O8,0.25950000000000006
Li2MnCr3O8,0.25939999999999985
Li2MnCrO4,0.9299000000000004
Li2MnCrO4,1.3218999999999994
Li2MnCrO4,0.0
Li2MnCrO4,0.7585999999999995
Li2MnCrO4,0.2538999999999998
Li2MnCu(PO4)2,0.0
Li2MnCu3O8,0.0
Li2MnCuO4,0.0
Li2MnF4,3.0431999999999997
Li2MnF4,3.826
Li2MnF4,3.6324
Li2MnF4,4.1274
Li2MnF4,4.7007
Li2MnF4,3.7439999999999998
Li2MnF4,3.9058
Li2MnF4,2.0526
Li2MnF4,4.0178
Li2MnF4,3.6791
Li2MnF4,3.871
Li2MnF4,4.0445
Li2MnF4,3.6632000000000002
Li2MnF4,3.9851
Li2MnF4,4.2937
Li2MnF4,4.0065
Li2MnF4,3.5855
Li2MnF4,3.7509
Li2MnF4,3.7436999999999996
Li2MnF4,4.0203
Li2MnF4,3.8456
Li2MnF4,3.4416
Li2MnF4,4.3323
Li2MnF4,3.691
Li2MnF4,4.0319
Li2MnF4,1.9728000000000003
Li2MnF4,3.7186000000000003
Li2MnF4,3.8341
Li2MnF4,3.8952
Li2MnF4,3.3902
Li2MnF5,1.8414
Li2MnF5,1.619
Li2MnF5,0.5185000000000001
Li2MnF5,2.2819
Li2MnF5,1.5240999999999998
Li2MnF5,1.5265000000000002
Li2MnF5,1.8449
Li2MnF5,0.7715000000000001
Li2MnF5,2.0289
Li2MnF5,1.0269
Li2MnF6,2.3539000000000003
Li2MnF6,2.1473
Li2MnF6,2.9792
Li2MnF6,2.3696
Li2MnF6,2.3745000000000003
Li2MnF6,2.6841
Li2MnF6,2.9219999999999997
Li2MnF6,2.5613
Li2MnF6,2.6308
Li2MnF6,2.3507000000000002
Li2MnF6,2.0839999999999996
Li2MnFe(BO3)2,2.7636
Li2MnFe(BO3)2,3.1274999999999995
Li2MnFe(BO3)2,3.0258000000000003
Li2MnFe(BO3)2,3.0082
Li2MnFe(BO3)2,3.105
Li2MnFe(BO3)2,3.0617
Li2MnFe(BO3)2,3.0858
Li2MnFe(BO3)2,2.9413
Li2MnFe(BO3)2,2.7044000000000006
Li2MnFe(BO3)2,2.7141
Li2MnFe(BO3)2,2.3991999999999996
Li2MnFe(BO3)2,3.0795000000000003
Li2MnFe(BO3)2,2.9414999999999996
Li2MnFe(BO3)2,3.1309000000000005
Li2MnFe(BO3)2,2.7056000000000004
Li2MnFe(BO3)2,3.0498000000000003
Li2MnFe(BO3)2,2.6787
Li2MnFe(BO3)2,3.1151
Li2MnFe(BO3)2,2.3991000000000002
Li2MnFe(BO3)2,2.9201000000000006
Li2MnFe(BO3)2,3.0889
Li2MnFe(BO3)2,2.4
Li2MnFe(BO3)2,2.1319
Li2MnFe(BO3)2,2.6795999999999998
Li2MnFe(BO3)2,3.0423999999999998
Li2MnFe(BO3)2,3.0729999999999995
Li2MnFe(PO4)2,3.7761
Li2MnFe(PO4)2,3.7336
Li2MnFe(PO4)2,3.4593
Li2MnFe(PO4)2,3.0174999999999996
Li2MnFe(PO4)2,3.4051
Li2MnFe2(PO4)3,0.0
Li2MnFe3O8,0.0
Li2MnFeO4,1.2092999999999998
Li2MnFeO4,0.0
Li2MnFeO4,0.17870000000000008
Li2MnGeO4,2.0368
Li2MnH4(SO5)2,4.0138
Li2MnH4(SO5)2,4.0045
Li2MnH8(SO6)2,3.9976999999999996
Li2MnH8(SO6)2,3.9071000000000002
Li2MnN,0.0
Li2MnN2,0.0
Li2MnN2,0.4918999999999998
Li2MnNb3O8,0.15270000000000028
Li2MnNb3O8,0.047800000000000065
Li2MnNbO4,0.0
Li2MnNi(PO4)2,2.6904999999999997
Li2MnNi3O8,0.0
Li2MnNi3O8,0.20740000000000025
Li2MnNiO4,0.0
Li2MnO2,0.0
Li2MnO2,2.4263000000000003
Li2MnO2F,2.404
Li2MnO2F,1.0934
Li2MnO2F,1.4026999999999998
Li2MnO2F,0.9823999999999999
Li2MnO2F,2.21
Li2MnO2F,1.7081000000000002
Li2MnO2F,2.3681
Li2MnO2F,2.1220999999999997
Li2MnO2F,0.8740000000000001
Li2MnO2F,1.0842999999999998
Li2MnO2F,1.0974
Li2MnO2F,0.5186999999999999
Li2MnO2F,0.0
Li2MnO2F,2.1464
Li2MnO2F,0.7514000000000003
Li2MnO2F,0.8622999999999998
Li2MnO2F,0.7469000000000001
Li2MnO2F,0.2511000000000001
Li2MnO2F,0.5057
Li2MnO2F,2.2011000000000003
Li2MnO2F,0.7483
Li2MnO2F,0.5027000000000004
Li2MnO2F,0.7454999999999998
Li2MnO3,1.0030000000000001
Li2MnO3,1.3173
Li2MnO3,0.9367000000000001
Li2MnO3,1.4382000000000001
Li2MnO3,1.3683999999999998
Li2MnOF2,1.5452
Li2MnOF3,2.0397
Li2MnOF3,1.2659
Li2MnOF3,1.2664
Li2MnOF3,0.5119
Li2MnOF3,1.0222000000000002
Li2MnOF3,1.5139
Li2MnOF3,0.2562
Li2MnOF3,1.4107
Li2MnP2HO8,0.7346999999999999
Li2MnP2O7,4.3122
Li2MnP2O7,4.1327
Li2MnP2O7,3.7203000000000004
Li2MnP2O7,4.3532
Li2MnP2O7,4.2349
Li2MnP2O7,2.1420000000000003
Li2MnP2O7,2.4757
Li2MnP2O7,3.1115999999999997
Li2MnP2O7,3.7668
Li2MnP2O7,3.8564
LaRh3,0.0
LaRh3C,0.0
LaRhC2,0.0
LaRhO3,0.5939999999999994
LaRu2,0.0
LaRuO3,0.0
LaS,0.0
LaS2,0.0
LaS2,0.6101999999999999
LaS2,0.6423000000000005
LaS2,0.6312999999999995
LaSBr,2.7907999999999995
LaSCl,2.4524
LaSClO4,4.0939
LaSF,1.4880999999999993
LaSI,2.1752000000000002
LaSO,1.522899999999999
LaSO,1.5641999999999996
LaSO5,0.7914000000000003
LaSb,0.0
LaSb(SBr)2,2.1022000000000003
LaSb2,0.0
LaSb2Au,0.0
LaSb2Pd,0.0
LaSb3Pd,0.0
LaSb5O12,3.0498000000000003
LaSbIr,0.0
LaSbMo2O9,3.1516999999999995
LaSbO4,3.0090000000000003
LaSbPd,0.0
LaSbRh,0.0
LaSbSe,0.0
LaSbSe3,0.9761000000000006
LaSbTe,0.0
LaSbTe,0.018600000000000172
LaSc(SO4)3,4.1163
LaSc3(BO3)4,4.0855999999999995
LaSc3(BO3)4,4.2481
LaSc3(BO3)4,3.9049
LaSc3(BO3)4,4.2334
LaScGe,0.0
LaScO3,3.8973000000000004
LaScS3,1.6446000000000005
LaScSb,0.0
LaScSi,0.0
LaSe,0.0
LaSe2,0.0
LaSe2,1.2149999999999999
LaSe2,0.2386999999999997
LaSe3,0.0
LaSeCl,1.3360000000000003
LaSeF,1.7260999999999997
LaSeO3F,3.7498
LaSeS,0.0
LaSi,0.0
LaSi2,0.0
LaSi2Ag,0.0
LaSi2Ni,0.0
LaSi2Ni9,0.0
LaSi2Pt,0.0
LaSi2Rh3,0.0
LaSi2Ru,0.0
LaSi2Ru3,0.0
LaSi3Ir,0.0
LaSi3N5,3.0992999999999995
LaSi3Os,0.0
LaSi3Rh,0.0
LaSi3Ru,0.0
LaSi4Ni9,0.0
LaSi5,0.0
LaSiAg,0.0
LaSiAs3,0.0
LaSiBO5,4.297999999999999
LaSiBO5,4.142500000000001
LaSiI,0.0
LaSiIr,0.0
LaSiNi,0.0
LaSiNi4,0.0
LaSiO3F,4.541399999999999
LaSiOs2C,0.0
LaSiP3,0.0
LaSiP3,0.5185000000000004
LaSiPd,0.0
LaSiPt,0.0
LaSiPt3,0.0
LaSiRh,0.0
LaSiRu,0.0
LaSm(CoO3)2,0.7027000000000001
LaSm(NiO3)2,0.0
LaSm3,0.0
LaSm3(FeO3)4,1.5064000000000002
LaSm3Cr4O12,0.0
LaSm3O6,3.7358000000000002
LaSmB12,0.0
LaSmCo2O5,0.5165000000000006
LaSmCr2O6,2.5225999999999997
LaSmI4,0.0
LaSmIr2,0.0
LaSmMg2,0.0
LaSmNi2O5,0.5480999999999998
LaSmO3,4.243500000000001
LaSmS2,0.0
LaSmTl2,0.0
LaSmZn2,0.0
LaSn,0.0
LaSn2,0.0
LaSn2Pd,0.0
LaSn2Rh,0.0
LaSn3,0.0
LaSn3Ru,0.0
LaSnAu,0.0
LaSnAu2,0.0
LaSnF7,5.0936
LaSnIr,0.0
LaSnP(SO6)2,1.7751
LaSnPd,0.0
LaSnPt,0.0
LaSnRh,0.0
LaTa2AgO7,1.5627
LaTa2CuBrO7,0.0
LaTa2CuClO7,0.0
LaTa2NO5,2.0828999999999995
LaTa2NO5,2.1631
LaTa2NO5,2.2484
LaTa2NO5,2.0492
LaTa3(PO4)6,2.5369
LaTa3O9,2.7517000000000005
LaTa3O9,2.2437999999999994
LaTa3Si3(SO8)3,2.3041
LaTa7O19,3.1165999999999996
LaTaBi2O7,1.9634
LaTaCrO6,0.18080000000000007
LaTaFeO6,0.0
LaTaN2O,0.6712999999999996
LaTaN3,0.49709999999999965
LaTaO4,2.7027
LaTaO4,3.3887
LaTaO4,3.4680000000000004
LaTaP2SO12,3.1315
LaTaSi(SO6)2,2.441
LaTaTiO6,3.3911
LaTaTiO6,2.9187999999999996
LaTaZnCrO6,1.8525
LaTaZnFeO6,2.6454000000000004
LaTb2RuO7,0.0
LaTb3,0.0
LaTb3(Mo2O7)2,0.27780000000000005
LaTbC4,0.0
LaTcN3,0.0
LaTe,0.0
LaTe2,0.0
LaTe2Se,0.0
LaTe3,0.0
LaTeAs,0.1266999999999996
LaTeCl,0.6570999999999998
LaTeCl,0.8821000000000003
LaTh,0.0
LaTh3Ru8,0.0
LaTh4O10,0.0
LaTh4OF19,1.154
LaThCN,0.0
LaThN2,0.0
LaThPb6,0.0
LaThUS5,0.0
LaTi2Al9O19,2.9322
LaTi2GaO6,0.07340000000000035
LaTi2O6,0.0
LaTi2TlO6,0.2370000000000001
LaTi3(BiO4)3,2.2535999999999996
LaTi4Mn3O12,0.0
LaTi6(PO4)9,2.4212999999999996
LaTi6Bi7O24,2.4667000000000003
LaTi6O12,0.0
LaTiAgO4,1.4657
LaTiAlPbO6,2.507200000000001
LaTiAlPbO6,1.8576000000000006
LaTiCrO6,0.10220000000000029
LaTiGe,0.0
LaTiGe3,0.0
LaTiI5O16,2.6177
LaTiNO2,0.7556000000000012
LaTiNO2,1.3069999999999995
LaTiNO2,0.9393999999999991
LaTiNO2,0.5628999999999991
LaTiNO2,1.2144000000000004
LaTiNO2,1.2700000000000005
LaTiNbBi2O9,1.7236000000000002
LaTiNbO6,3.1468000000000003
LaTiNbO6,2.7987
LaTiO3,0.0
LaTiP(SO6)2,2.1822999999999997
LaTiS3,0.0
LaTiSbO6,2.7433000000000005
LaTiTeO6,0.0
LaTiZnCrO6,2.3718999999999992
LaTiZnFeO6,2.3253
LaTl,0.0
LaTl(PS3)2,2.4808000000000003
LaTl(PSe3)2,1.7774999999999994
LaTl(WO4)2,2.6009999999999995
LaTl2P2S7,2.0622
LaTl3,0.0
LaTlAg2,0.0
LaTlAu2,0.0
LaTlCd,0.0
LaTlGeSe4,1.3103999999999996
LaTlGeSe4,1.1172000000000004
LaTlHg2,0.0
LaTlO3,0.34969999999999946
LaTlPd,0.0
LaTlZn,0.0
LaTm(Ge2Ir)2,0.0
LaTmB12,0.0
LaTmMg2,0.0
LaTmO2,0.0
LaTmO3,4.414
LaTmS2,0.0
LaTmS3,0.7541000000000002
LaTmS3,0.8731
LaTmTl2,0.0
LaU2O6,0.0
LaU2S5,0.0
LaU3Al8,0.0
LaUAl4,0.0
LaUN2,0.0
LaUO4,0.0
LaUS2,0.0
LaUTe6,0.0
LaV2BiO8,3.2664
LaV2IO9,2.5100000000000002
LaV3O9,2.3393999999999995
LaVGe3,0.0
LaVH2I4O15,2.8357
LaVI5O16,2.3631
LaVN3,0.3281999999999998
LaVO3,0.0
LaVO4,3.2732
LaVO4,2.9047
LaVS3,0.0
LaVSb3,0.0
LaVZnCrO6,1.3988000000000005
LaVZnFeO6,0.5099999999999998
LaW9O28,0.0
LaWClO4,2.9076999999999997
LaWN3,0.0
LaWN3,1.2096
LaWN3,0.7063999999999995
LaWN3,2.3975
LaWN3,1.7117999999999993
LaY,0.0
LaY(B2Rh3)2,0.0
LaY(Co4B)2,0.0
LaY(MnSi)2,0.0
LaY(MnSi)4,0.0
LaY(SO4)3,4.6639
LaY3,0.0
LaY3(MnSi)4,0.0
LaY3Sc4O12,4.214599999999999
LaY3Ti4O12,0.0
LaY3Ti4O14,2.8136
LaY9Si8,0.0
LaYAl4,0.0
LaYC3,0.0
LaYCo10,0.0
LaYIn6,0.0
LaYMg14,0.0
LaYMg2,0.0
LaYMg4,0.0
LaYMg6,0.0
LaYNi10,0.0
LaYO3,4.341600000000001
LaYS3,0.7897999999999996
LaYTi2O6,0.0
LaYZn2,0.0
LaZn,0.0
LaZn(BO2)5,4.4971
LaZn(FeO3)2,0.0
LaZn11,0.0
LaZn13,0.0
LaZn2,0.0
LaZn2Ag,0.0
LaZn2Co,0.0
LaZn2Ni3,0.0
LaZn3,0.0
LaZn3Ni2,0.0
LaZn4,0.0
LaZn4Ni,0.0
LaZn5,0.0
LaZnAgAs2,0.2477999999999998
LaZnAgP2,0.5088999999999997
LaZnAsO,0.5760000000000005
LaZnAu2,0.0
LaZnCo2,0.0
LaZnCr2O6,0.40910000000000046
LaZnCrBiO6,0.8994999999999997
LaZnCrCoO6,0.0
LaZnCrFeO6,0.7851000000000008
LaZnCrMoO6,0.0
LaZnCrSnO6,2.2934
LaZnCrWO6,1.8891
LaZnCuP2,0.18590000000000018
LaZnFeAgO6,0.1311
LaZnFeBiO6,0.0
LaZnFeCoO6,0.0
LaZnFeCuO6,0.0021999999999993136
LaZnFeMoO6,1.7031999999999998
LaZnFeMoO6,0.0
LaZnFeNiO6,0.0
LaZnFeSbO6,1.1670999999999996
LaZnFeSnO6,2.2267
LaZnFeWO6,2.2058
LaZnGa,0.0
LaZnIn,0.0
LaZnNi,0.0
LaZnNi2,0.0
LaZnNi4,0.0
LaZnO3,0.0
LaZnPO,0.6563000000000008
LaZnPd,0.0
LaZnRh,0.0
LaZnSbO,0.0
LaZnSn,0.0
LaZr2F11,5.7551
LaZr9O20,0.0
LaZrF7,6.031
LaZrNO2,1.7294
LaZrP(SO6)2,3.4947
LaZrTa3O11,3.3365
Li,0.0
Li(BH)3,4.7883000000000004
Li(BH)4,1.7113
Li(BH)5,4.9946
Li(BH)6,5.6126000000000005
Li(BH)6,5.4961
Li(BH)6,5.6377
Li(Bi3O5)4,0.0
Li(BiO2)2,0.0
Li(BiO2)3,0.0
Li(CeGe)4,0.0
Li(Co3P2)2,0.0
Li(CoGe)6,0.0
Li(CoO2)2,0.9052
Li(CoO2)2,0.0915999999999999
Li(CoO2)2,0.0
Li(CoO2)2,0.4557
Li(CoO2)2,0.5771999999999999
Li(CoO2)2,0.5920000000000001
Li(CoO2)2,0.6658999999999997
Li(CoO2)3,1.0357999999999998
Li(CoO2)3,0.0
Li(CoO2)3,1.1138
Li(CoO2)3,0.30020000000000024
Li(CoO2)4,0.0
Li(CoO2)4,0.49249999999999994
Li(CoO2)4,1.1774
Li(CoO2)4,0.9306000000000001
Li(CoO2)4,1.1016000000000001
Li(CoO2)8,0.4759000000000002
Li(CoS2)2,0.0
Li(CrS2)2,0.0
Li(CuO)2,0.0
Li(CuO)3,0.0
Li(CuO2)2,0.0
Li(CuP)2,0.0
Li(ErGe)4,0.0
Li(Fe2O3)4,0.9143999999999997
Li(Fe2O3)4,0.7477999999999998
Li(Fe2O3)4,0.48750000000000027
Li(Fe2O3)4,1.0797000000000003
Li(Fe2O3)4,0.8753999999999995
Li(Fe3Ge2)2,0.0
Li(Fe3P2)2,0.0
Li(FeGe)6,0.0
Li(FeN)2,0.0
Li(FeO2)2,0.3103
Li(FeO2)2,0.0
Li(FeO2)3,0.0
Li(FeO2)8,0.0
Li(FeP)2,0.0
Li(FeS2)2,0.0
Li(H3N)4,0.0
Li(HoGe)4,0.0
Li(LuGe)4,0.0
Li(Mg2Si)2,0.0
Li(Mg2Si)4,0.0
Li(Mg4Al3)4,0.0
Li(MnS2)2,0.0
Li(Mo3S4)2,0.0
Li(Mo3Se4)2,0.0
Li(MoO2)2,1.4741000000000004
Li(MoO2)2,1.4162
Li(MoO3)3,0.21729999999999983
Li(MoSe)3,0.054999999999999716
Li(NdGe)4,0.05569999999999986
Li(NdSi)2,0.0
Li(NiGe)6,0.0
Li(NiO2)2,0.07310000000000016
Li(NiO2)2,0.0
Li(NiO2)2,0.3313999999999999
Li(NiO2)2,0.2783000000000002
Li(NiO2)2,0.7825000000000002
Li(NiO2)3,0.7590999999999997
Li(NiO2)4,0.0
Li(NiO2)5,0.0
Li(NiP)2,0.0
Li(NiS)2,0.0
Li(NiS2)2,0.0
Li(PrGe)4,0.05510000000000037
Li(PrGe3)2,0.0
Li(ReO3)4,0.0
Li(ReO3)5,0.0
Li(RuO2)2,0.0
Li(SeO3)2,0.21530000000000005
Li(SeO3)2,0.2950999999999999
Li(SiNi)6,0.0
Li(SiO2)6,0.0
Li(SiRh)2,0.0
Li(Sn3Pd)2,0.0
Li(TaS2)2,0.0
Li(TiS2)2,0.0
Li(TiS2)3,0.0
Li(TiSe2)3,0.0
Li(TiTe2)2,0.0
Li(TiTe2)5,0.0
Li(TmGe)4,0.0
Li(TmGe2)2,0.0
Li(VS2)2,0.0
Li(WO3)2,0.0
Li(YGe)4,0.0
Li(YSi)2,0.0
Li(ZrS2)2,0.0
Li10B14Cl2O25,6.4018999999999995
Li10BrN3,1.3667
Li10Co(SiO5)2,2.0015
Li10Co(SiO5)2,1.9617
Li10Co11O21,0.5341000000000005
Li10Co3Ni7O20,0.0
Li10Co4O9,1.4774000000000003
Li10Co4O9,1.1130000000000002
Li10CoNi9O20,0.0
Li10Cr(SiO5)2,0.6955
Li10Cr(SiO5)2,0.6698
Li10Cr2Fe3Co3O16,0.0
Li10Cr3Co2Ni3O16,0.0
Li10Cr3Fe3(NiO8)2,1.7259000000000002
Li10Cr3Fe3(NiO8)2,1.2444000000000002
Li10Cr3P6(O4F)6,0.0
Li10Cu(SiO5)2,0.3449
Li10Cu(SiO5)2,2.5039
Li10Cu4S9,0.0
Li10Fe(SiO5)2,1.8141000000000003
Li10Fe21O32,0.0
Li10Fe2Co3Ni3O16,0.0
Li10Fe3Co2Ni3O16,0.0
Li10Fe3Co3(NiO8)2,0.7782999999999998
Li10Fe3Co7O20,0.0
Li10Fe3Ni7O20,0.2056
Li10Fe3Sb7O24,0.7912999999999997
Li10Fe4S9,0.0
Li10Fe5Co3O16,0.0
Li10Fe5Co3O16,0.2833000000000001
Li10Fe9CoO20,0.22940000000000005
Li10FeCo9O20,1.9630999999999998
Li10FeCo9O20,0.11459999999999981
Li10FeNi9O20,0.0
Li10Ge(PO6)2,4.4932
Li10Ge(PO6)2,4.4506
Li10Ge(PO6)2,4.4921
Li10Ge(PS6)2,2.0551
Li10Ge(PS6)2,2.3653
Li10Ge(PSe6)2,1.0491000000000001
Li10Ge(PSe6)2,1.3131000000000002
Li10Mg12Fe(PO4)12,4.4803
Li10Mg7Cl24,4.438599999999999
Li10Mn(SiO5)2,0.9481999999999999
Li10Mn21O48,0.0
Li10Mn23O48,0.0
Li10Mn2Fe3Co3O16,0.7412999999999998
Li10Mn2Fe3Ni3O16,0.43179999999999996
Li10Mn2V3Cr3O16,1.8132999999999995
Li10Mn3Co2Ni3O16,0.0
Li10Mn3Cr2Ni3O16,0.37219999999999986
Li10Mn3Cr3(CoO8)2,0.9534000000000002
Li10Mn3Cr3(FeO8)2,0.5476999999999999
Li10Mn3Cr3(NiO8)2,0.6225
Li10Mn3Cr5O16,0.0
Li10Mn3F16,3.3565
Li10Mn3V5O16,0.0
Li10Mn5Fe3O16,0.28269999999999973
Li10Ni4O9,0.0
Li10Pb3,0.0
Li10Sc9Fe(SiO3)20,3.0593000000000004
Li10Si(PO6)2,5.2544
Li10Si(PO6)2,5.1063
Li10Si(PS6)2,2.3830999999999998
Li10Si(PS6)2,2.5638
Li10Si(PSe6)2,1.3276999999999999
Li10Si(PSe6)2,1.4633
Li10Si2NiO10,2.3662
Li10Si2PbO10,2.9602999999999997
Li10Sn(PO6)2,3.3917
Li10Sn(PO6)2,3.2725999999999997
Li10Sn(PS6)2,2.0004
Li10Sn(PS6)2,2.339
Li10Sn(PSe6)2,1.0869000000000002
Li10Sn(PSe6)2,1.3659000000000001
Li10Ti11Cr9O40,0.0
Li10Ti11Nb6O42,1.8834999999999997
Li10Ti2Fe3Co3O16,1.4660999999999995
Li10Ti2Fe3Ni3O16,1.2175000000000002
Li10Ti2Mn3Co3O16,0.0
Li10Ti2Mn3Ni3O16,0.3022
Li10Ti3Co3(NiO8)2,0.5989000000000004
Li10Ti3Mn5O16,0.8626999999999998
Li10Ti4O13,3.9595
Li10V(SiO5)2,0.8535999999999997
Li10V3Cr5O16,0.22939999999999916
Li10V5Cr3O16,0.6901000000000002
Li10Zn(PS4)4,2.5023
Li10Zn(PS4)4,2.5786
Li10Zn(PS4)4,2.5065
Li10Zn(PS4)4,2.4484000000000004
Li10Zn(PS4)4,2.5987999999999998
Li10Zn(PS4)4,2.6896000000000004
Li10Zn(PS4)4,2.7628000000000004
Li10Zn(PS4)4,2.6990999999999996
Li10Zn(PS4)4,2.7251
Li10Zn(PS4)4,2.5218000000000007
Li10Zn(PS4)4,2.5244
Li10Zn(PS4)4,2.7188
Li10Zn3(GeO4)4,2.7679
Li10Zn3(GeO4)4,3.1107
Li10Zn4O9,2.329
Li10Zn7(PS4)8,2.6681
Li10Zn7(PS4)8,2.6681999999999997
Li10Zn7(PS4)8,2.6445
Li11(CoO4)2,0.2894000000000001
Li11(FeO3)4,0.0
Li11(MoO2)12,0.41439999999999966
Li11(NiO2)12,0.0
Li11(NiO4)2,0.0
Li11(RuO3)8,0.0
Li11Co12(PO4)12,0.0
Li11Cr3Fe3O16,0.0
Li11Fe(WO4)7,2.8156
Li11Fe12(BO3)12,1.5745
Li11Fe12(BO3)12,1.0162999999999998
Li11Fe3B24(PbO24)2,1.1731000000000003
Li11Fe5(OF11)2,2.3187
Li11Fe6F29,3.2092
Li11Ge6,0.0
Li11La12Fe3O28,0.0
Li11Mn12(BO3)12,0.0
Li11Mn12(BO3)12,0.04360000000000008
Li11Mn13O32,0.0
Li11Mn6O16,0.0
Li11MnAs6,0.0
Li11Nb12O36,0.0
Li11Nb4(Ni3O8)3,1.2260999999999997
Li11Ni13O24,0.0
Li11Ta37N48,0.0
Li11Ti12(NiO8)4,0.03310000000000013
Li11Ti24O48,0.0
Li11Ti4Fe9O32,0.0
Li11Ti4Mn12O32,0.0
Li11Ti8Fe5O32,0.0
Li11TiAs5,0.0
Li11TiP5,0.20059999999999967
Li11TiSb5,0.1979000000000002
Li11U4(WO5)8,0.0
Li11V12(CoO8)4,0.6860999999999997
Li11V12(CuO4)12,0.0
Li11V12(OF)24,0.0
Li11V16O32,0.6774
Li11V4F24,0.0
Li11V6O5F19,0.6718000000000002
Li11V6O5F19,0.4537000000000002
Li11V6O5F19,0.22750000000000004
Li11V6O5F19,0.44569999999999976
Li11V6O5F19,0.6938
Li11V6O5F19,0.0
Li11V6O5F19,1.0273999999999999
Li11V8(PO4)12,0.8757000000000001
Li11Y14Ti14(S2O5)7,0.0
Li12(WO4)7,0.0
Li12Al3Si4,0.0
Li12Co3NiP4(CO7)4,2.84
Li12CoNi3P4(CO7)4,2.9723000000000006
Li12Cr3CoP4(CO7)4,1.5513
Li12Cr3FeP4(CO7)4,2.4471
Li12Cr3NiP4(CO7)4,2.3780999999999994
Li12Cr5O16,0.23239999999999972
Li12CrCo3P4(CO7)4,1.2044000000000001
Li12CrFe3P4(CO7)4,2.4315999999999995
Li12CrGa11O24,1.3460999999999999
Li12CrNi3P4(CO7)4,1.6346000000000003
Li12Cu11As12,0.0
Li12Fe3CoP4(CO7)4,2.1716999999999995
Li12Fe3NiP4(CO7)4,3.1360999999999994
Li12Fe5O16,0.0
Li12FeNi3P4(CO7)4,3.0772000000000004
Li12Ge7,0.0
Li12Mg3Si4,0.0
Li12Mn11Fe(PO4)12,3.6905
Li12Mn2Fe3O16,0.0
Li12Mn2O9,0.724
Li12Mn3CoP4(CO7)4,2.0535
Li12Mn3CrP4(CO7)4,2.3728
Li12Mn3FeP4(CO7)4,3.6464
Li12Mn3NiP4(CO7)4,2.8660000000000005
Li12Mn3V5(PO4)12,0.25170000000000026
Li12Mn3V5(PO4)12,0.0
Li12Mn3V5(PO4)12,0.5555000000000003
Li12Mn3VP4(CO7)4,2.6856
Li12Mn5V3(PO4)12,0.0
Li12Mn7V(PO4)12,0.6222000000000001
Li12Mn7V(PO4)12,0.5092000000000001
Li12MnCo(Ni5O12)2,0.0
Li12MnCo3P4(CO7)4,2.0062
Li12MnCr3P4(CO7)4,2.6193000000000004
Li12MnFe3P4(CO7)4,3.378
Li12MnNi3P4(CO7)4,2.7359999999999998
Li12MnV3P4(CO7)4,2.7203999999999997
Li12MnV7(PO4)12,0.1814
Li12Mo5O17,1.2811
Li12Nb14ZnO42,3.2302
Li12Nb14ZnO42,3.2580000000000005
Li12Ni11O28,0.6335999999999999
Li12Si7,0.0
Li12V3CoP4(CO7)4,0.8535999999999997
Li12V3CrP4(CO7)4,1.9742000000000002
Li12V3FeP4(CO7)4,2.3246
Li12V3NiP4(CO7)4,2.0119000000000002
Li12VCo3P4(CO7)4,0.7799000000000005
Li12VCr3P4(CO7)4,1.9836999999999998
Li12VFe3P4(CO7)4,2.3267999999999995
Li12VNi3P4(CO7)4,1.5977000000000001
Li13(FeO6)2,0.0
Li13(Ga7Cu2)3,0.0
Li13(Mn3As4)2,0.0
Li13(Si5Pd7)2,0.0
Li13Co11O24,0.20459999999999967
Li13Co15O28,0.34670000000000023
Li13Co15O28,0.03799999999999981
Li13In3,0.0
Li13Mg(Ni6O13)2,0.0
Li13Mn17O40,0.5161000000000002
Li13Mn21O48,0.0
Li13Mn2O12,0.0
Li13Mn2O9,0.42169999999999985
Li13Mn2O9,0.010199999999999987
Li13Mn3(SbO8)2,1.1465
Li13Mn3Nb2O16,1.0312999999999999
Li13Mn6(PO4)8,0.0
Li13Mn8O24,0.0
Li13Nb14ZnO42,0.0
Li13Ni15O28,0.0
Li13Ni9O22,0.0
Li13Si4,0.0
Li13Sn5,0.0
Li13Ti22O48,0.0
Li13Ti28O56,0.0
Li13V24O52,0.5977000000000001
Li13Zn11Ge12,0.0
Li14Be6(BO3)9,0.008400000000000019
Li14Ce5Si11N19O7F2,0.0
Li14Co13O28,0.0
Li14Co2S9,0.20350000000000001
Li14Co9(P2O7)8,2.1437
Li14Cr2N8O,2.1601
Li14Cr9(P2O7)8,2.7124
Li14Cu9(P2O7)8,0.3940999999999999
Li14Fe2S9,0.0
Li14Fe4O13,2.3295
Li14MgCo13O28,0.0
Li14MgSi4,0.09899999999999998
Li14Mn22Cr3Cu3O56,0.0
Li14Mn2O9,2.5938999999999997
Li14Mn2S9,1.5171
Li14Mn5F24,3.5262
Li14Mn9(P2O7)8,3.7787000000000006
Li14Nd5Si11N19O7F2,2.7504
Li14Ni9(P2O7)8,3.9337
Li14P2(N2O)3,3.6017999999999994
Li14Sn9(P2O7)8,0.0
Li14Ti21O48,0.0
Li14V9(P2O7)8,2.5301000000000005
Li15(FeO4)4,0.0
Li15(FeO6)2,0.019299999999999984
Li15(NiO2)14,0.0
Li15Au4,0.0
Li15Bi4(PdO10)2,0.03420000000000001
Li15Cr15SiO32,1.3783999999999996
Li15Cr2N9,1.3186
Li15Cr2O12,0.0
Li15Fe15SiO32,1.9057999999999997
Li15Ge4,0.0
Li15H9N8,2.6967000000000003
Li15Mn15SiO32,0.21960000000000024
Li15Mn21O43,0.0
Li15Mn2O12,0.0
Li15Mn8P8(O4F)8,0.22030000000000016
Li15Nb16O48,0.0
Li15Ni8(PO4)12,0.0
Li15Pd4,0.0
Li15Si4,0.0
Li15Ti11Nb5O42,2.2795