formula,band_gap
K2MnF6,2.9778000000000002
K2MnH2OF5,1.3384999999999998
K2MnH4(Cl2O)2,3.6477
K2MnH4(I2O7)2,2.671
K2MnH4(SO5)2,4.2109
K2MnH8(SO6)2,4.4676
K2MnH8(SO6)2,4.6359
K2MnH8(SO6)2,2.4962999999999997
K2MnHgF6,0.3587
K2MnI4,2.0705
K2MnN2,0.0
K2MnO4,0.22920000000000001
K2MnO4,0.4578
K2MnP2H2(O4F)2,1.4885000000000002
K2MnP2O7,2.4911000000000003
K2MnP4(HO2)8,5.439500000000001
K2MnPCO7,0.7031
K2MnS2,0.9719999999999998
K2MnSO4F3,1.1893
K2MnSO4F3,1.3683999999999998
K2MnSe2,0.9895
K2MnSnSe4,0.2896000000000001
K2MnTe2,0.0
K2MnTlF6,0.0
K2MnV14O40,0.0
K2MnV2O7,2.41
K2MnV4O12,1.6115
K2Mo(I2O7)2,2.7181
K2Mo(SO)2,2.2395
K2Mo(SO)2,2.3413999999999997
K2Mo(SO5)2,2.5828
K2Mo15S19,0.0
K2Mo15Se19,0.0
K2Mo2H4C4O15,2.748
K2Mo2H8O15,2.4415
K2Mo2O7,3.1424
K2Mo2P2O11,2.4334
K2Mo2P2O11,0.7654999999999998
K2Mo2Se2O11,2.787
K2Mo3(AsO5)4,2.4356999999999998
K2Mo3O10,3.3529
K2Mo4O13,3.1369000000000002
K2Mo4O13,2.8708
K2Mo7O20,0.0
K2Mo9S11,0.0
K2MoAs2O9,2.547
K2MoAuF6,1.4368
K2MoBr4,0.11250000000000004
K2MoCl5O,2.7579
K2MoCl6,0.0
K2MoH2(CO4)2,3.1134
K2MoH2S2O9,2.9941000000000004
K2MoO2F5,0.03970000000000007
K2MoO2F5,0.0
K2MoO3F4,0.38760000000000017
K2MoO4,4.0703
K2MoP2O9,3.0343999999999998
K2MoS4,1.4127999999999998
K2MoSO3,3.1004
K2MoSeO6,3.2315
K2Na(B3O5)3,5.062
K2Na(H2N)3,2.11
K2Na(SbO3)3,1.9091
K2Na2Ca4Mg15(SiO3)24,0.11609999999999987
K2Na2Eu2MgNb2O10,0.0
K2Na2Eu4Nb2O13,0.011400000000000077
K2Na2Eu4Ta2O13,0.005900000000000016
K2Na2Gd4Nb2O13,3.0952
K2Na2H16XeO14,0.9084999999999999
K2Na2IrO4,0.1484000000000001
K2Na2Mo(WO4)3,0.0
K2Na2Mo3WO12,0.5184000000000002
K2Na2Nb(WO4)3,0.0
K2Na2Nd4Nb2O13,3.7800000000000002
K2Na2NdF7,6.1175
K2Na2Sb2H6O3F10,4.5674
K2Na2Sm4Nb2O13,3.762
K2Na2Sm4Ta2O13,3.9737999999999998
K2Na3InO4,1.92
K2Na3P3O10,4.3865
K2Na3SiP3,0.8900999999999999
K2Na3TlO4,1.3295999999999997
K2Na4Be2O5,2.6224999999999996
K2Na4Ca5(Si6O17)2,0.018300000000000094
K2Na4Ca5(Si6O17)2,0.0
K2Na4Co2O5,0.07580000000000009
K2Na4Fe2O5,0.48219999999999996
K2Na4Ge2O7,3.419
K2Na4Li2Ti4Mn3Fe(SiO3)16,1.7582
K2Na4ZnSn2,0.5203999999999998
K2Na5Al7Si5O24,2.3028
K2Na6V5(MoO8)3,0.0
K2Na6V5Mo3O20,0.0
K2NaAl3F12,6.900399999999999
K2NaAl3F12,6.8339
K2NaAlAs2,1.026
K2NaAlCl6,4.3079
K2NaAlF6,6.8580000000000005
K2NaAlH6,2.3466
K2NaAlP2,1.242
K2NaAs,0.14690000000000003
K2NaAsBr6,2.5764
K2NaAsCl6,3.145
K2NaAsF6,4.4981
K2NaAuBr6,0.0
K2NaAuCl6,0.0
K2NaAuF6,0.5742
K2NaBP2,1.771
K2NaBiBr6,3.1276
K2NaBiCl6,3.7886
K2NaBiF6,4.8062000000000005
K2NaBiI6,2.1103
K2NaCa2TiSi7HO20,3.4517
K2NaCa2TiSi7O20,0.32800000000000007
K2NaCeBr6,0.31520000000000015
K2NaCeCl6,0.3200999999999996
K2NaCeF6,0.23019999999999996
K2NaCeI6,0.0
K2NaCl3,4.8309
K2NaCl3,4.9422999999999995
K2NaCo(CN)6,4.3374999999999995
K2NaCo(NO2)6,2.4828
K2NaCoF6,2.9932
K2NaCrCl6,1.3875000000000002
K2NaCrF6,4.2057
K2NaCuF6,0.7248
K2NaDyCl6,4.9377
K2NaErCl6,4.9656
K2NaEuCl6,0.0
K2NaFeF6,4.0922
K2NaFeO3,0.0
K2NaGaAs2,0.8055000000000001
K2NaGaBr6,1.6303
K2NaGaCl6,2.9202
K2NaGaF6,5.952
K2NaGaP2,1.3078999999999998
K2NaGdCl6,3.1345
K2NaH10IO10,2.5046
K2NaH5(CO4)2,4.3382000000000005
K2NaInAs2,0.6228999999999998
K2NaInBr6,2.0195
K2NaInCl6,3.2151
K2NaInF6,5.2445
K2NaInI6,0.6835
K2NaInP2,1.0504000000000002
K2NaInSb2,0.5808
K2NaIrF6,2.3848
K2NaLaCl6,4.6105
K2NaLuCl6,5.0024999999999995
K2NaMnF6,1.5314
K2NaMnF6,0.0
K2NaMnO4,1.4825
K2NaMo(OF)3,2.7033
K2NaMo(OF)3,3.2003
K2NaMoBr6,1.4722999999999997
K2NaMoCl6,1.5542000000000002
K2NaMoF6,3.9023
K2NaMoI6,1.0858999999999999
K2NaNb(OF2)2,2.4266
K2NaNb(OF2)2,2.2955
K2NaNb(OF2)2,2.4644000000000004
K2NaNb(OF2)2,2.3005
K2NaNb2Fe7Si8H4O31,0.11190000000000033
K2NaNb3O9,1.9676000000000002
K2NaNbF6,0.0
K2NaNdBr6,4.0009
K2NaNdCl6,4.8337
K2NaNdF6,5.990500000000001
K2NaNdI6,3.1157999999999997
K2NaNiF6,0.0
K2NaPdF6,0.0
K2NaPdF6,0.5740000000000001
K2NaPrBr6,3.9822999999999995
K2NaPrCl6,4.7855
K2NaPrF6,5.9483
K2NaPrI6,3.1022000000000003
K2NaRhF6,2.0000999999999998
K2NaRuF6,0.0
K2NaS2ClO6,4.8818
K2NaSbBr6,2.5456
K2NaSbCl6,3.1323000000000003
K2NaSbF6,3.9986000000000006
K2NaSbI6,2.0979
K2NaScBr6,3.0952
K2NaScCl6,3.9133
K2NaScF6,6.749700000000001
K2NaScI6,2.1954000000000002
K2NaSmCl6,4.8597
K2NaTaBr6,0.0
K2NaTaCl6,0.0
K2NaTaI6,0.0
K2NaTbCl6,4.9113
K2NaTi2Fe7Si8H4O31,1.4669999999999996
K2NaTiF6,0.0
K2NaTiOF5,3.964
K2NaTlBr6,1.0308
K2NaTlCl6,1.9894
K2NaTlF6,3.6205
K2NaTlI6,0.07489999999999997
K2NaTlO3,1.2618999999999998
K2NaTmCl6,4.9718
K2NaV5H10O19,2.4848999999999997
K2NaVF6,0.0
K2NaVOF5,2.6098000000000003
K2NaYBr6,4.0741
K2NaYCl6,4.9526
K2NaYF6,6.2393
K2NaYI6,3.1298999999999997
K2NaZn(BO2)5,4.2332
K2NaZn2H5(C2O7)2,4.3942
K2Nb2As2O11,2.9930000000000003
K2Nb2O5,0.0
K2Nb3Cl7O5,2.2949
K2Nb4Fe2O13,1.8139999999999998
K2Nb6Ag(PO8)3,1.6358000000000001
K2NbAgS4,2.1290999999999998
K2NbAgS4,2.1663
K2NbCl6,0.0
K2NbCuS4,1.9582
K2NbCuSe4,1.6164
K2NbF7,4.5283999999999995
K2NbHgF6,0.0
K2NbO3F,1.2883
K2NbO3F5,0.7448999999999999
K2NbS7,1.3203999999999998
K2NbV(PO5)2,1.0716
K2Nd(PO3)5,5.2482999999999995
K2Nd2IrO7,0.2913000000000001
K2Nd2Ti3O10,2.2681
K2Nd4MgNb2O12,0.09140000000000015
K2Nd4MgNb2O12,0.6721999999999997
K2Nd4MgNb2O12,0.5334000000000003
K2NdAgBr6,3.2105
K2NdAgCl6,3.4985999999999997
K2NdAgF6,2.4403
K2NdAgI6,2.5576
K2NdAuCl6,2.2347
K2NdBr5,3.9512
K2NdCl5,4.7465
K2NdCuBr6,2.2312000000000003
K2NdCuCl6,2.4258000000000006
K2NdCuI6,1.8245
K2NdF5,6.675800000000001
K2NdH4N5O17,3.5537
K2NdI5,3.0409999999999995
K2NdN5O17,0.4090999999999999
K2NdNb5O15,1.8534000000000002
K2NdP2S7,2.4898
K2NdPCO7,4.3286999999999995
K2Ni(CN)4,3.0324
K2Ni(MoO4)2,3.1723000000000003
K2Ni(NO3)4,3.1695
K2Ni(PO3)4,4.734500000000001
K2Ni12As7,0.0
K2Ni2(MoO4)3,3.2782
K2Ni2(SO4)3,3.5401
K2Ni3S4,0.7685999999999997
K2Ni3S4,0.7006000000000001
K2Ni3Se4,0.4373
K2Ni4P4O15,0.3734000000000002
K2NiAs2,0.08029999999999982
K2NiAuF6,0.0
K2NiC4(SO)4,1.7671999999999999
K2NiF4,3.6693
K2NiF6,2.3603
K2NiH12(C2O7)2,3.1717
K2NiH12(SO7)2,4.5955
K2NiH12(SeO7)2,3.6116
K2NiH8(CO5)2,4.3339
K2NiHgF6,1.9584000000000001
K2NiO2,0.577
K2NiP2,0.6445000000000003
K2NiP2O7,3.4002999999999997
K2NiP2WO10,1.1528
K2NiP4(HO2)8,4.5444
K2NiPCO7,0.0
K2NiPb(NO2)6,1.7504
K2NpO4,0.2662
K2O,0.0
K2O,0.3822
K2O,1.3316
K2O,1.7426
K2O,0.8928999999999999
K2O,0.15539999999999998
K2O,1.7072
K2O,0.8801
K2O,0.6523000000000001
K2O,1.8533999999999997
K2O2,2.3575
K2O2,2.0833999999999997
K2Os(Cl2O)2,1.7383
K2OsBr6,0.0
K2OsCBr5O,0.5206
K2OsCl6,0.0
K2OsN3Cl3O5,2.2837
K2OsNCl5,1.8403
K2OsNCl5,1.2462
K2OsNCl5,1.6138000000000003
K2OsO5,1.3774
K2OsO5,1.3176999999999999
K2P2H2O7,4.9118
K2P2H2O7,5.0961
K2P2H2O7,4.7606
K2P2H4O7,5.1259
K2P2O5F2,5.0435
K2P2Pd,1.0789
K2P2PdO7,1.1969
K2P2PdS6,1.2420999999999998
K2P2WO9,4.0835
K2P3,1.0327000000000002
K2P3,1.0518
K2P3,0.7095000000000002
K2P3H5O11,5.0482
K2P3H7O9,6.462
K2P4H6PtO11,2.2802000000000002
K2P4PbO12,5.0568
K2PAu,0.9515
K2PAuS4,1.5691000000000002
K2PH3O5,3.8360999999999996
K2PH3SO8,5.4338
K2PH3SeO8,4.0697
K2PH4O5,4.5942
K2PH4O7,4.2014
K2PH4S3O2,2.8749000000000002
K2PH4Se3O2,1.9087
K2PHO4,4.5325
K2PO3F,4.4668
K2PO4,3.2014
K2PS3,2.887
K2PSO8,0.0022999999999999687
K2PSe3,1.7683
K2PaF7,3.6522
K2Pb(SO4)2,4.436
K2Pb2O3,1.6906999999999996
K2Pb3C3O9F2,3.2868999999999997
K2PbCl5,0.0
K2PbCl6,1.6065
K2PbO2,1.9147
K2PbO3,1.2096
K2PbO3,1.2434
K2PbO3,1.1376
K2Pd,0.0
K2Pd(CN)4,3.7889
K2Pd(NO2)4,2.0739
K2Pd(NO2)4,2.137
K2Pd(NO3)4,1.8303
K2Pd(NO3)4,1.9068
K2Pd(S2O7)3,1.4223000000000001
K2Pd(S4O13)2,4.5944
K2Pd3S4,0.5108999999999999
K2Pd3Se2,0.23089999999999988
K2Pd3Se4,0.764
K2Pd3Se4,0.7342000000000002
K2PdBr3Cl,1.3535000000000001
K2PdBr4,1.2048999999999999
K2PdBr6,0.5077
K2PdBrCl3,1.4958
K2PdC2,1.4304000000000001
K2PdC4(SN)4,1.585
K2PdCl4,1.4279000000000002
K2PdCl6,1.2027
K2PdF4,1.8732000000000002
K2PdF6,2.0399000000000003
K2PdN2(ClO2)2,2.1670999999999996
K2PdN2(ClO2)2,2.006
K2PdN2(ClO2)2,1.727
K2PdO2,1.3697
K2PdO4,0.0
K2PdS2,1.117
K2PdSe10,1.1765
K2PdSe2,0.8458000000000001
K2Pr2H3(S2O9)2,0.1872
K2Pr4Cl9O2,0.1636999999999995
K2PrAgBr6,3.1830999999999996
K2PrAgCl6,3.4664
K2PrAgF6,2.5361
K2PrAgI6,2.5488
K2PrAuCl6,2.2392
K2PrBr5,4.007
K2PrCl5,4.815300000000001
K2PrCuBr6,2.2293000000000003
K2PrCuCl6,2.2912
K2PrCuI6,1.8073
K2PrH4N5O17,3.3605
K2PrI5,3.031
K2PrN5O17,0.3205000000000001
K2PrNb5O15,1.8979
K2PrPCO7,4.2654
K2PrZr(PO4)3,4.1841
K2Pt,1.3146
K2Pt(CN)4,2.1357
K2Pt(I2O)2,1.1413999999999997
K2Pt(I2O)2,0.06959999999999988
K2Pt(NO2)4,2.2580999999999998
K2Pt(NO2)4,2.1193999999999997
K2Pt(NO2)4,1.9671
K2PtBr4,1.4769999999999999
K2PtBr6,1.1688
K2PtC2,0.9937999999999998
K2PtCl4,1.8196
K2PtCl6,1.8566
K2PtF6,2.5717
K2PtI5,0.0
K2PtI6,0.8659999999999999
K2PtN3(ClO2)3,2.7133
K2PtN4(ClO4)2,1.9353000000000002
K2PtO6,0.1852999999999998
K2PtS15,1.6801
K2PtS2,1.2355999999999998
K2PtSe2,0.9345000000000001
K2Pu2O5,0.0
K2PuCl5,0.07550000000000034
K2PuCl6,0.3467000000000001
K2PuO4,0.0
K2Rb2Re6S13,1.3711000000000002
K2Rb4Fe2O5,1.0154999999999998
K2RbAlBr6,3.3626
K2RbAlCl6,4.487
K2RbAlF6,5.946400000000001
K2RbAlI6,1.9161000000000001
K2RbAsBr6,3.0965
K2RbAsCl6,3.4807
K2RbAsF6,3.8905
K2RbAsI6,2.3175
K2RbAuF6,0.7577999999999999
K2RbBi,0.13990000000000014
K2RbBiBr6,3.4181
K2RbBiCl6,3.9638
K2RbBiF6,4.2158999999999995
K2RbBiI6,2.6959
K2RbBiSe3,2.1256
K2RbCO3F,3.8124000000000002
K2RbCeBr6,0.31590000000000007
K2RbCeCl6,0.3325
K2RbCeF6,0.0
K2RbCeI6,0.27939999999999987
K2RbCoF6,3.2015000000000002
K2RbCrF6,4.5029
K2RbDyCl6,4.5105
K2RbDyV2O8,3.4091
K2RbErCl6,4.5391
K2RbErV2O8,3.4177999999999997
K2RbEuV2O8,0.0
K2RbGaBr6,2.3254
K2RbGaCl6,3.5572
K2RbGaF6,5.5929
K2RbGaI6,0.9854
K2RbGdCl6,3.2314
K2RbGdMgV2O8,1.3256000000000001
K2RbGdV2O8,3.1889000000000003
K2RbHoV2O8,3.3687
K2RbInBr6,2.5232
K2RbInCl6,3.7137
K2RbInF6,5.1078
K2RbIrF6,2.2706
K2RbLaV2O8,3.4692
K2RbLuCl6,4.5442
K2RbLuV2O8,3.3743
K2RbMn2F7,2.9207
K2RbMnF6,0.0
K2RbMoBr6,1.6014
K2RbMoCl6,1.6332
K2RbMoF6,3.0563
K2RbMoI6,1.4308
K2RbNbF6,0.0
K2RbNdBr6,3.6906999999999996
K2RbNdCl6,4.359500000000001
K2RbNdF6,5.2708
K2RbNdI6,3.1287000000000003
K2RbNdV2O8,3.4296
K2RbPdF5,2.2313
K2RbPdF6,0.0
K2RbPrBr6,3.6885
K2RbPrCl6,4.349600000000001
K2RbPrF6,5.2136000000000005
K2RbPrI6,3.1256000000000004
K2RbPrV2O8,3.4240000000000004
K2RbPt,0.0
K2RbRhF6,2.2056
K2RbRuF6,0.0
K2RbSb,0.6879
K2RbSbBr6,2.8383000000000003
K2RbSbCl6,3.3632999999999997
K2RbSbF6,3.5055
K2RbSbI6,2.3768000000000002
K2RbScBr6,3.2468
K2RbScCl6,4.0698
K2RbScF6,5.8541
K2RbScV2O8,3.0768
K2RbSmV2O8,3.1515
K2RbTaBr6,0.0
K2RbTbCl6,4.247
K2RbTbMgV2O8,1.5741
K2RbTbMgV2O8,1.2526000000000002
K2RbTbMgV2O8,1.2881
K2RbTbV2O8,3.1271
K2RbTiF6,0.0
K2RbTlBr6,1.5429
K2RbTlF6,3.7342000000000004
K2RbTmCl6,4.5161999999999995
K2RbTmV2O8,3.369
K2RbVF6,0.0
K2RbYBr6,3.71
K2RbYCl6,4.4925
K2RbYF6,5.6436
K2RbYI6,3.1008
K2RbYV2O8,3.3843
K2Re3C2Se5N2,1.1218
K2Re3CS5N,1.2982
K2Re3TeC3(SN)3,2.0883000000000003
K2ReBr6,0.9700000000000001
K2ReCl5O,0.3921000000000001
K2ReCl6,1.0776
K2ReF6,1.6997
K2ReF8,1.0682
K2ReH9,5.212999999999999
K2ReI6,0.22299999999999986
K2Rh2O5,0.0
K2RhAuF6,0.7098
K2RhF6,0.0
K2Ru(NO2)5,0.1857000000000001
K2RuBr5NO,1.6301
K2RuBr6,0.020200000000000023
K2RuCl5O,0.0
K2RuCl6,0.0
K2RuI5NO,1.3952
K2RuN3Cl3O5,2.0803
K2RuN3Cl3O5,1.7325
K2RuNCl5O,1.7947
K2RuNCl5O,1.7638
K2RuO4,0.16959999999999997
K2RuO5,0.9515
K2S,2.3201
K2S,2.0612
K2S2NO6,0.8741
K2S2O3,3.7496
K2S2O5,3.2524
K2S2O5,3.1872
K2S2O7,5.2193
K2S3,1.2855
K2S5,1.9298999999999997
K2S5,1.1703
K2S5O16,4.5508
K2SBrCl6,0.0
K2SIO7,0.0
K2SO3,4.914899999999999
K2SO4,5.0531
K2SO4,5.2168
K2SO4,5.0695
K2Sb2S(O2F3)2,4.3549
K2Sb4O11,1.8585999999999998
K2Sb4S7,1.5478
K2Sb9PbSe15,0.0
K2SbAu,1.0023000000000002
K2SbAuBr6,0.238
K2SbAuCl6,0.351
K2SbAuI6,0.0
K2SbCl5,3.2507
K2SbF5,4.6217
K2SbF5,4.7372000000000005
K2SbF5,4.6778
K2SbF5,4.5357
K2SbF5,4.6309000000000005
K2SbF5,3.9800000000000004
K2SbH5O6,3.1185
K2SbPCO7,3.8332999999999995
K2SbPO6,2.5161000000000002
K2SbSO4F3,4.578
K2Sc2Mo(PO6)2,3.0902000000000003
K2Sc2P2WO12,3.7217999999999996
K2ScAgBr6,2.8359
K2ScAgCl6,3.248
K2ScAgF6,3.0351
K2ScAgI6,2.1618
K2ScAuBr6,1.7408
K2ScAuCl6,2.0353000000000003
K2ScAuF6,1.5836999999999999
K2ScAuI6,1.1642
K2ScCuCl6,1.8771999999999998
K2ScCuF6,1.2408000000000001
K2ScHgBr6,0.0
K2ScHgCl6,0.0
K2ScHgF6,0.0
K2ScHgI6,0.0
K2ScInBr6,2.3286
K2ScInCl6,2.5251
K2ScInF6,3.5404000000000004
K2ScInI6,1.9864
K2ScP2Se7,1.7243
K2ScPCO7,3.9723
K2ScSi2O7,0.4707
K2ScSi4O10F,4.7453
K2ScSn(AsO4)3,2.5709
K2ScTlBr6,3.0604
K2ScTlCl6,3.3972
K2ScTlF6,4.6328000000000005
K2Se,2.0925000000000002
K2Se(SO3)2,2.8607
K2Se2O5,3.4243
K2Se2O7,3.0355
K2Se3,0.644
K2Se5,0.9322999999999999
K2SeBr6,1.6978
K2SeO4,3.6119999999999997
K2SeO4,3.6435
K2Si(S2O7)3,5.0725
K2Si2O5,4.3282
K2Si3PbO10,0.8807
K2Si3SnO10,0.9085
K2Si3SnO9,3.8295999999999997
K2Si3SnO9,3.8617
K2Si4O9,4.4376
K2Si4O9,4.6302
K2Si4SbO11,0.30909999999999993
K2Si5BO12,0.0
K2Si6GeO15,4.7946
K2SiAs2,1.0036
K2SiF6,7.1895
K2SiF6,7.2234
K2SiH4(NO)2,3.7996
K2SiO3,3.6483000000000003
K2SiP2,1.2086999999999999
K2Sm2As2Se9,1.0577
K2Sm2IrO7,0.27570000000000006
K2Sm2Mg(MoO4)4,1.6087000000000002
K2Sm2Mg(MoO4)4,1.4144000000000005
K2Sm2Mg(MoO4)4,1.5419999999999998
K2SmAgCl6,3.5685
K2SmAuCl6,2.2805
K2SmBr5,4.0333
K2SmCl5,4.779999999999999
K2SmCuCl6,2.3789000000000007
K2SmF5,6.7623
K2SmMoPO8,4.0009
K2SmNb5O15,1.8639
K2SmP2S7,2.2591
K2SmPCO7,5.1944
K2Sn(AsS3)2,1.0089000000000001
K2Sn(AuS2)2,1.6433
K2Sn(GeO3)3,2.6278
K2Sn(H2N)6,2.4109000000000003
K2Sn(HO)6,3.6828
K2Sn(S2O7)3,3.4436
K2Sn2Hg3S8,1.4179
K2Sn2O3,1.2308999999999997
K2Sn2O3,1.3022
K2Sn2S5,1.4062999999999999
K2Sn2Se5,0.8429
K2Sn3(SbS5)2,1.8165999999999998
K2Sn3O7,1.5671000000000004
K2Sn5Cl12,2.4961
K2SnBi,0.0
K2SnBr6,1.1772
K2SnBr6,1.6124
K2SnBr6,1.8996
K2SnCl6,2.4712
K2SnCl6,2.4614
K2SnCl6,2.844
K2SnF6,5.3443000000000005
K2SnF6,5.1508
K2SnH2Cl4O,3.6502
K2SnH2OF6,4.158200000000001
K2SnH2OF6,3.8446999999999996
K2SnHOF6,5.3168999999999995
K2SnHgSe4,1.4785000000000001
K2SnHgTe4,0.6227999999999998
K2SnO2,1.5380999999999998
K2SnO3,2.1547
K2SnP2O7,4.0965
K2SnPCO7,0.0
K2SnS3,2.2443
K2SnSe3,1.646
K2SnTe3,0.9613
K2SnTe5,0.5368999999999997
K2Sr(Ge4O9)2,2.9314999999999998
K2Sr(NbCl3)6,1.0688000000000004
K2Sr(PO3)4,5.6094
K2Sr2O3,2.1635
K2Sr3Mn2(P2O7)3,0.4074
K2SrB8(HO)28,5.1198
K2SrBe2F8,7.202
K2SrCdSb2,0.3151999999999999
K2SrCl4,4.7457
K2SrCl4,5.0062999999999995
K2SrCl4,4.988099999999999
K2SrCu(NO2)6,0.04249999999999998
K2SrIn7,0.0
K2SrNb5O15,0.0
K2SrNi(NO2)6,2.1937
K2SrP2O7,4.7677
K2SrTa2O7,2.0748
K2SrTh2(MoO4)6,0.0
K2SrTi10O22,2.6409000000000002
K2SrV3O9,2.12
K2SrV4O12,3.0368
K2SrVB5O12,3.9009
K2Ta15O32,0.0
K2Ta2(OF2)3,3.9245
K2Ta2O5,0.0
K2Ta3Cl9,1.4543000000000004
K2Ta4O11,3.3655
K2TaAgS4,2.4916
K2TaAgS4,2.4256
K2TaCl6,0.0
K2TaCuSe4,0.0
K2TaCuSe4,2.0288000000000004
K2TaF7,5.5706
K2TaF7,5.608499999999999
K2TaNbO6,1.3152000000000001
K2TaNbO6,1.7028
K2TbAgCl6,3.6214000000000004
K2TbAuCl6,1.9647999999999999
K2TbCl5,4.9948
K2TbCuCl6,2.4713
K2TbF5,6.793
K2TbF6,0.0
K2TbNb5O15,1.8670000000000002
K2TbO3,0.0
K2TbPCO7,4.4814
K2Tc9O27F11,2.6543
K2TcBr6,1.0368
K2TcCl5O,0.5965
K2TcCl6,1.1425999999999998
K2TcF6,1.7181
K2TcH9,4.9451
K2TcI6,0.17469999999999986
K2Te,2.141
K2Te(WO4)3,2.362
K2Te(WO4)3,2.6071
K2Te2As,0.9603999999999999
K2Te2O5,3.1500000000000004
K2Te2Pd,0.9208000000000001
K2Te2Pd,0.21030000000000015
K2Te2Pt,0.7917000000000001
K2Te3,0.5752000000000002
K2Te4O9,2.7177
K2TeBr6,2.3360000000000003
K2TeBr6,2.2372
K2TeBr6,1.9579
K2TeCl6,2.5557
K2TeClF5,4.3619
K2TeH10(NO7)2,2.5549999999999997
K2TeH6(O3F)2,2.9622
K2TeH6SO10,3.4090000000000003
K2TeH6SeO10,3.4641
K2TeH6SeO10,3.4008
K2TeI6,1.7449
K2TeMo2(PO7)2,2.9747
K2TeO3,3.5774
K2TeO4,2.8731
K2TeOF4,4.8881
K2TeS3,2.3419000000000003
K2TeSe3,1.7896
K2Th(AsO4)2,3.8900999999999994
K2Th(CuS2)2,1.1260000000000003
K2Th(MoO4)3,2.84
K2Th(MoO4)3,3.6330999999999998
K2Th(NO3)6,3.5914
K2Th(PSe3)3,1.458
K2Th(PSe3)3,1.5188
K2Th3Mg(MoO4)8,3.6343
K2ThF6,6.5851
K2ThF6,6.3807
K2ThF6,6.6619
K2ThO3,3.7257000000000002
K2Ti(CuS2)2,1.6735000000000002
K2Ti(GeO3)3,2.7839
K2Ti(Si2O5)3,3.4563999999999995
K2Ti(Si2O5)3,3.4116
K2Ti(Si2O5)3,3.2565999999999997
K2Ti(SiO3)3,3.3701
K2Ti(SiO3)3,3.2108
K2Ti(TeO4)3,1.5200999999999998
K2Ti2(PO4)3,0.0
K2Ti2O5,3.2005999999999997
K2Ti4O9,3.0211
K2Ti6O13,2.7535
K2Ti8O17,2.6099
K2TiAl(PO4)3,2.8994999999999997
K2TiCl6,2.0826000000000002
K2TiCr(PO4)3,2.6824000000000003
K2TiCr(PO4)3,2.3967
K2TiF5,0.0015000000000000568
K2TiF5,0.08730000000000038
K2TiF6,4.7349
K2TiGe(PO5)2,3.2283999999999997
K2TiH2O3F4,2.3695
K2TiHF7,4.7659
K2TiHgF6,2.1789
K2TiO3,3.4121
K2TiO3F4,0.12969999999999998
K2TiOF4,3.0221999999999998
K2TiPCO7,0.1251000000000002
K2TiS3,1.1215
K2TiSi3(HO5)2,3.4247
K2TiSi3O10,0.7994000000000001
K2TiTlF6,0.0
K2TiZnO4,3.6582000000000003
K2TlAgBr6,0.0
K2TlAgCl6,0.0
K2TlAgF6,0.4485
K2TlAgI6,0.0
K2TlAsBr6,1.5711
K2TlAsCl6,1.9049999999999998
K2TlAsF6,2.726
K2TlAsI6,0.8611
K2TlAuBr6,0.0
K2TlAuCl6,0.0
K2TlAuF6,0.0
K2TlAuI6,0.0
K2TlBiF6,3.1816
K2TlCoF6,2.5182
K2TlCrF6,4.0416
K2TlCuBr6,0.0
K2TlCuCl6,0.0
K2TlCuF6,0.0
K2TlFeF6,2.5608
K2TlGaBr6,1.6
K2TlGaCl6,2.5197
K2TlGaF6,4.1618
K2TlGaI6,0.49750000000000005
K2TlHgBr6,0.0
K2TlHgCl6,0.0
K2TlHgF6,0.0
K2TlHgI6,0.0
K2TlInBr6,2.1232
K2TlInCl6,2.5682
K2TlInF6,3.6161000000000003
K2TlInI6,0.8332999999999999
K2TlIrF6,2.2493
K2TlMoF6,3.7505999999999995
K2TlNiF6,0.28580000000000005
K2TlPCO7,1.2816
K2TlPdF6,0.0
K2TlRhF6,1.9609
K2TlRuF6,0.0
K2TlSbBr6,1.161
K2TlSbCl6,1.9155000000000002
K2TlSbF6,2.6523000000000003
K2TlVF6,0.0
K2TmAgCl6,3.6439
K2TmAuCl6,2.1163000000000003
K2TmCuCl6,2.4668
K2TmF5,7.114
K2TmPCO7,4.4497
K2U(MoO4)3,0.026699999999999946
K2U(MoO5)2,2.2230999999999996
K2U(PSe3)3,0.038200000000000234
K2U(PdS2)3,0.0
K2U(Si2O5)3,0.11580000000000013
KCaNdWO6,2.8502
KCaNdWO6,2.8268000000000004
KCaNi2H3(SeO5)2,2.2301
KCaNi2H3(SeO5)2,1.7653
KCaP3(HO2)6,5.4434
KCaP3H4O11,5.2022
KCaPO5,0.0
KCaPrSbO6,0.0
KCaPrWO6,2.8469000000000007
KCaPrWO6,2.8172
KCaPrWO6,2.8049
KCaSiHO4,4.3515
KCaSmWO6,2.8322000000000003
KCaSnBiO6,0.0
KCaTbBiO6,0.0
KCaTbFeO6,0.0
KCaTbNbO6,0.0
KCaTbWO6,2.8457
KCaTiBiO6,0.6149
KCaV2F9,2.2395
KCaYWO6,2.8432999999999997
KCaZrBiO6,1.2018
KCaZrNbO6,2.243
KCaZrSbO6,3.2186000000000003
KCd(BH4)3,3.8411999999999997
KCd(BO2)3,3.7622
KCd(NO2)3,2.305
KCd(PO3)3,4.1305000000000005
KCd13,0.0
KCd3,0.0
KCd3H8Cl7O4,3.4217000000000004
KCd4As3,0.0
KCd4Ga5S12,1.9747
KCd4P3,0.0
KCd6P7O24,3.072
KCdAs,0.1656000000000002
KCdC3(NO)3,4.1312
KCdCl3,3.5095
KCdCu7Se2Cl9O8,0.0
KCdF3,3.1006
KCdF3,3.3539
KCdGeAs2,0.6884999999999999
KCdP3H8O13,4.4116
KCdSb,0.0
KCe(MoO4)2,0.0
KCe(PO3)4,0.3409000000000004
KCe(PO3)4,0.32539999999999925
KCe(SO4)2,0.3395999999999999
KCe(WO4)2,0.0
KCe2CuSe6,0.08399999999999963
KCe5S8,0.0
KCeAgTe4,0.0
KCeCuTe4,0.0
KCeEuWO6,0.0
KCeF4,0.0
KCeF4,0.040000000000000036
KCeGeSe4,0.0
KCeH2S2O9,0.013799999999999812
KCeHf2O6,0.14910000000000068
KCeHfSnO6,0.1719999999999997
KCeHfZrO6,0.1508999999999996
KCeMg14,0.0
KCeMg14O16,0.0
KCeMg30O32,0.0
KCeMg30O32,0.4408000000000012
KCeMgWO6,0.1377000000000006
KCeMnWO6,0.14430000000000032
KCeNb2O6,0.0
KCeNb4O12,0.0
KCeNbSnO6,1.8976999999999995
KCeNbSnO6,1.6239
KCeNdMnO6,2.0177
KCePCO7,1.1836
KCePrGeO6,1.9978000000000002
KCeS2,0.0
KCeSe4,0.0
KCeSiS4,0.038600000000000634
KCeSiS4,0.07430000000000003
KCeSnWO6,0.0
KCeTi2O6,0.02939999999999987
KCeVWO6,0.0
KCeZr2O6,0.14880000000000004
KCl,5.027
KCl,4.8004999999999995
KCl3,0.0
KClO3,5.4717
KClO3,5.3358
KClO3,5.5725
KClO4,5.5614
KClO4,5.1439
KCo(PO3)3,0.0
KCo(PO3)3,2.4746
KCo2(MoO5)2,0.0
KCo2(MoO5)2,0.3045
KCo2(PO4)2,0.0
KCo2As2HO8,1.8806999999999998
KCo2H3(SeO5)2,0.0
KCo3Cu(AsO4)3,0.10899999999999999
KCo4(PO4)3,2.5376000000000003
KCoAs3F18,2.8102
KCoCl3,0.0
KCoCu3Se4,0.03999999999999959
KCoCuS2,0.0
KCoF3,0.0
KCoF4,0.6322999999999999
KCoH3(CO2)3,2.9178
KCoH3(CO2)3,2.3129999999999997
KCoN,0.0
KCoO2,0.0
KCoO2,0.5208999999999999
KCoO2,1.1848
KCoO2,1.3214000000000001
KCoP2H5O9,3.4371
KCoPCO7,0.0
KCoPH2O5,1.6258
KCoPO4,0.46050000000000013
KCr(CO2)4,0.5839999999999999
KCr(MoO4)2,2.9629
KCr(SO4)2,3.1538999999999997
KCr(SO4)2,2.7634
KCr12Si8BrO28,2.1822
KCr12Si8ClO28,2.1609999999999996
KCr20O40,0.0
KCr2AgO7,1.6229
KCr2FeO8,1.5070999999999999
KCr2FeO9,0.0
KCr2PbF9,3.0941
KCr3BiO12,0.475
KCr3H6(SO7)2,2.2228
KCr3O8,1.5634000000000001
KCr3S5,0.49260000000000037
KCr4O8,0.0
KCr5S8,0.23659999999999926
KCr5Se8,0.0037000000000002586
KCr5Se8,0.15580000000000016
KCr5Te8,0.0
KCrCl3,0.0
KCrClO3,2.5006
KCrCuF6,0.3488
KCrF3,1.5720000000000003