formula,band_gap
KV3P4O17,1.3954
KV4Ag11O16,0.8009000000000002
KV4O10,0.0
KV4O8,0.0
KV4P7O24,1.9234999999999998
KV5Co(H8O11)2,2.0524999999999998
KV5S8,0.0
KV5Se8,0.0
KV5Zn(H8O11)2,2.4984
KV6O11,0.32730000000000015
KV6O11,0.0
KV6O14,1.0927
KVAsO5,0.0
KVBP2HO9,1.7431
KVBiWO6,0.0
KVCdO4,2.8749
KVCl3,0.33420000000000005
KVCu3Se4,0.3110999999999997
KVF3,2.0758999999999994
KVF4,1.9296000000000002
KVFeP2H5O11,1.781
KVH24(SO10)2,4.4453
KVH2SO7,1.5867
KVH2SeO7,2.5911
KVH4O7,2.8415
KVH4O7,0.6965
KVH4O7,2.7133
KVH6SO9,2.93
KVH6SeO9,2.7192
KVHSe2O7,1.9415000000000002
KVMoO6,2.9033
KVN2,0.8734000000000002
KVO2,1.0393
KVO3,3.0460000000000003
KVOF3,0.018299999999999983
KVOF3,2.7904
KVOF4,3.6667
KVP2O7,2.0684
KVP2S7,0.0
KVPCO7,1.58
KVPHO6,2.422
KVPO4F,2.3034
KVPO5,1.1885
KVPO5,3.0694
KVPO6,0.4026
KVPbO4,3.3834000000000004
KVS2O9,1.8157999999999999
KVSO6,1.8687
KVTeO5,3.3432999999999997
KW3Br7,2.6737
KW5O13,0.0
KWCl6,0.0
KWNClF5,2.6914
KWO3,0.0
KY(BH4)4,6.0454
KY(CO3)2,4.3035
KY(CuO2)2,0.0
KY(H2N)4,2.6774
KY(MoO4)2,3.589
KY(NbCl3)6,1.1149
KY(PO3)4,5.3392
KY(PO3)4,5.3607
KY(PSe3)2,1.8810999999999998
KY(SeO3)2,4.2541
KY(TeO3)2,3.1251
KY(WO4)2,3.0495
KY2Cl7,4.5404
KY2CuS4,1.0114999999999998
KY2F7,6.7942
KY2Ti2S2O5,0.0
KY3F10,6.9409
KY3F10,5.996700000000001
KYBeF6,7.369400000000001
KYF4,6.765700000000001
KYF4,6.9097
KYGeS4,2.4131
KYH14(C2O3)6,2.3063
KYMg14,0.0
KYMg14O16,1.8841999999999999
KYMg14O16,1.8490000000000002
KYMg30O32,3.4839
KYMg30O32,4.0359
KYMnWO6,2.8095000000000003
KYO2,3.9738999999999995
KYP2H4O9,5.018
KYP2O7,5.065
KYP2O7,5.2017999999999995
KYS2,2.3221
KYSiS4,2.8038000000000003
KYSnWO6,2.1069
KYSnWO6,2.5140000000000002
KYTa2O7,2.2072000000000003
KYTe2,1.2981000000000003
KZn(BO2)3,4.4661
KZn(PO3)3,4.4907
KZn13,0.0
KZn2(PO4)2,0.02859999999999996
KZn2BCl2O3,3.7081999999999997
KZn2CdB2O6F,2.7164
KZn2P2HO8,3.9897
KZn4(BO3)3,2.8200000000000003
KZn4(PO4)3,3.4541
KZn4(SbO4)3,1.6514000000000002
KZn4P3,0.5011000000000001
KZn4SbO7,0.8601000000000001
KZnAs,0.19910000000000005
KZnAs,0.2742
KZnAs3F18,4.3172
KZnB(H2Cl)2,4.885
KZnB(PO4)2,4.8588
KZnCuTe2,0.8106
KZnF3,3.6954000000000002
KZnH4Br3O2,0.0
KZnH5(SO5)2,4.7751
KZnN,0.5486999999999999
KZnP,0.8395999999999999
KZnP2H5O9,4.495299999999999
KZnP2H5O9,4.477
KZnP2O7,0.0
KZnPO4,3.9579
KZnPO4,3.8873
KZnSb,0.34460000000000024
KZnSb,0.44300000000000006
KZnSi3(H11C4)3,2.7228
KZr(PO4)2,0.0
KZr2(AsO4)3,3.996
KZr2(PO4)3,4.013299999999999
KZr2BiO6,0.7410000000000001
KZr6BI14,0.7154000000000003
KZr6CCl15,1.1123
KZr6CI14,0.016000000000000014
KZr6MnCl14,1.2413000000000003
KZr6NCl15,0.0
KZrCu3Se4,1.7187
KZrCuF7,0.2299
KZrCuS3,0.5924999999999998
KZrCuSe3,0.21439999999999992
KZrF5,5.5642
KZrGeBiO6,1.3028000000000004
KZrH2OF5,5.8343
KZrInWO6,0.48989999999999956
KZrMnBiO6,1.1158000000000006
KZrN3O11,0.0
KZrNbBiO6,0.0
KZrO3,0.0
KZrP2HO8,4.0181000000000004
KZrPCO7,3.8916000000000004
KZrPSe6,0.0
KZrPdF7,0.6681
KZrS2,0.0
KZrSnBiO6,0.9464000000000001
KZrSnF7,4.0133
KZrSnSbO6,2.7769000000000004
KZrTl2OF5,3.1083
KZrVF7,1.9948000000000001
Kr,7.1771
Kr,7.1828
Kr,7.1667
Kr,7.0685
Kr,7.56
KrF2,0.0
KrF2,2.7303
La,0.0
La(AgGe)2,0.0
La(Al10Cr)2,0.0
La(Al10V)2,0.0
La(Al2Cr)4,0.0
La(Al2Fe)4,0.0
La(Al4Fe)2,0.0
La(Al5Cu)2,0.0
La(Al5Fe)2,0.0
La(Al5Ru)2,0.0
La(AlBr4)3,2.6083
La(AlGa)2,0.0
La(AlGe)2,0.0
La(AlPd)2,0.0
La(AlSi)2,0.0
La(AlZn)2,0.0
La(As3Os)4,0.0
La(AsIr)2,0.0
La(AsPd)2,0.0
La(AsRh)2,0.0
La(AsRu)2,0.0
La(AuF4)3,2.1698
La(BC)2,0.0
La(BH4)3,4.5244
La(BIr)4,0.0
La(BO2)3,4.543200000000001
La(BO2)3,4.1959
La(BOs)2,0.0
La(BOs)4,0.0
La(BRu)4,0.0
La(BiO2)2,0.0
La(C2N3)3,3.5301
La(Cd10Ni)2,0.0
La(CdAs)3,0.20829999999999993
La(CeB8)3,0.0
La(ClO4)3,3.9271000000000003
La(ClO4)3,4.4896
La(Co2B)6,0.0
La(CoAs)2,0.0
La(CoB)2,0.0
La(CoB)4,0.0
La(CoGe)2,0.0
La(CoP)2,0.0
La(CoP3)20,0.0
La(CoSi)2,0.0
La(Cu2P)2,0.0
La(CuGe)2,0.0
La(CuO2)2,0.0
La(CuSi)2,0.0
La(CuSn)2,0.0
La(ErS2)3,1.0602999999999998
La(ErSe2)2,0.0
La(Fe2B)6,0.0
La(FeAs3)4,0.0
La(FeGe)2,0.0
La(FeP)2,0.0
La(FeP3)4,0.0
La(FeSb3)4,0.0
La(FeSi)2,0.0
La(Ga4Fe)2,0.0
La(Ga5Mo)8,0.0
La(GaPd)2,0.0
La(Ge2Rh3)2,0.0
La(Ge3Pt)4,0.0
La(GeIr)2,0.0
La(GePd)2,0.0
La(GePt)2,0.0
La(GeRh)2,0.0
La(GeRu)2,0.0
La(HO)3,3.7163999999999997
La(HO)3,3.8558000000000003
La(HO)3,4.0196
La(HO)3,4.0055
La(HO)3,3.7569000000000004
La(HO)3,4.0200000000000005
La(HO)3,4.2526
La(Ho2C5)2,0.0
La(HoS2)3,1.0735000000000001
La(IO3)3,3.1384000000000003
La(IO3)4,0.013900000000000023
La(In2Au)2,0.0
La(In2Ni)3,0.0
La(LuS2)3,1.0627000000000004
La(Mg2Al)4,0.0
La(Mg4Al3)4,0.0
La(MgSi)2,0.0
La(MnAl2)4,0.0
La(MnGe)2,0.0
La(MnSi)2,0.0
La(Mo3S4)2,0.0
La(Mo3Se4)2,0.0
La(NO2)3,2.2049000000000003
La(NO3)3,3.1374
La(Ni2B)6,0.0
La(Ni2Sn)2,0.0
La(NiAs)2,0.0
La(NiGe)2,0.0
La(NiP)2,0.0
La(NiSn)2,0.0
La(P3Os)4,0.0
La(P3Ru)4,0.0
La(PO3)3,4.3796
La(PPd)2,0.0
La(PRh)2,0.0
La(PRu)2,0.0
La(PdO2)2,0.0
La(ReSi)2,0.0
La(Sb3Os)4,0.0
La(Sb3Ru)4,0.0
La(SbO3)3,1.2141000000000002
La(SbPd)2,0.0
La(SeO3)2,0.0
La(SeO4)3,0.0
La(SiAg)2,0.0
La(SiAu)2,0.0
La(SiIr)2,0.0
La(SiNi)2,0.0
La(SiOs)2,0.0
La(SiP3)2,0.8978000000000002
La(SiPd)2,0.0
La(SiPt)2,0.0
La(SiRh)2,0.0
La(SiRu)2,0.0
La(SmB8)3,0.0
La(Sn2Rh)2,0.0
La(Sn3Ru2)2,0.0
La(TiAl10)2,0.0
La(Tl3Te2)3,0.819
La(TmS2)3,1.0688000000000004
La(WO3)11,0.0
La(YC3)2,0.0
La(YS2)3,1.0838
La(ZnAs)3,0.3622999999999994
La(ZnP)3,0.2362000000000002
La10(B3C4)3,0.0
La10(ErS3)9,0.0
La10(Si2O9)3,3.7138
La10Al5Br4,0.0
La10Al5I8,0.0
La10Bi8O27,1.2729
La10C4I15,0.0
La10Ga3Co7,0.0
La10Ga5Br4,0.0
La10Ga5Cl4,0.0
La10Mg(Ga3O10)3,0.0
La10MgTi7O30,2.3331
La10Os2I15,0.0
La10S14O,1.9410999999999996
La10S19,0.7225999999999999
La10Se14O,1.5518999999999998
La10Se19,0.5750000000000002
La10Si8O3,0.0
La10US16,0.0
La11(MnC6)3,0.5335999999999999
La11(Ni2Ge3)2,0.0
La11C11Cl7,0.0
La11Hg45,0.0
La11In9Ni4,0.0
La11Sn10,0.0
La11V12O36,0.8056000000000001
La11V4O26,0.030100000000000016
La12(ReC3)5,0.0
La12Au3I13,0.0
La12C6I17,0.025599999999999845
La12Co6Pb,0.0
La12Cu10O31,0.0
La12Cu6O25,0.0
La12Fe11S30,0.0
La12Fe2I17,0.0
La12Ga23MoO56,0.0
La12Ga23WO56,0.0
La12Ge5S28,0.9878999999999998
La12InCo6,0.0
La12Mn11O36,0.13600000000000012
La12Mn3(AlSe7)4,0.06349999999999945
La12Ni6O25,0.0
La12Ni6Pb,0.0
La12Si4SnS28,1.4132000000000007
La12Sn5S28,1.3636
La13(B2O13)2,0.0
La13Al12Si18(N13O5)3,1.982000000000001
La13Al12Si18(N13O5)3,0.9276
La13Al12Si18(N2O)18,0.0
La13Cd58,0.0
La13Hg58,0.08589999999999964
La14Ag51,0.0
La14Au51,0.0
La14C14Cl9,0.0
La14Mn13O42,0.0
La14Sb8CO7,0.0
La14Zn45Si,0.0
La15(NiO4)8,0.047699999999999854
La15B14C19,0.0
La15Cd2Rh5,0.0
La15CuGe9,0.0
La15FeGe9,0.0
La15Ge9O,0.0
La15Ge9P,0.0
La15Ge9Ru,0.0
La15Mn16O48,0.0
La16(Mo3O8)7,0.5984999999999996
La16Al13,0.0
La16Cu8O31,0.24609999999999932
La16Mg2Ga14O47,2.7936999999999994
La16Mn15O48,0.0
La16Ni8O33,0.0
La17Al4(Si3N11)3,1.8771000000000004
La17Mn18O54,0.0
La18In3Co28,0.0
La18Ni12O41,0.0
La19(RuO6)8,0.027499999999999858
La2(Al3Ir)3,0.0
La2(Al3Rh)3,0.0
La2(B2Rh3)3,0.0
La2(BiO2)7,0.0
La2(CoNi)5,0.0
La2(CuNi)5,0.0
La2(ErGe)3,0.0
La2(Ga3Ru)3,0.0
La2(GaNi)5,0.0
La2(GeO3)3,3.091
La2(InCu3)3,0.0
La2(InSn)3,0.0
La2(MgAg3)3,0.0
La2(MoO4)3,3.7134
La2(MoO4)3,3.6508000000000003
La2(Ni2B)3,0.0
La2(SO4)3,4.6743
La2(SeO3)3,3.5120000000000005
La2(SiO3)3,4.419900000000001
La2(SiO3)3,4.3073999999999995
La2(SnPb)3,0.0
La2(TlPb)3,0.0
La2(TlSn)3,0.0
La2(WO3)19,0.0
La2(WO4)3,4.0757
La2(Zn2Ge)3,0.0
La2(ZnGe2)3,0.0
La20Al3Si9O52,0.0
La20C20Cl13,0.0
La20Cu9O40,0.0
La20Mn8Te7C12,0.0
La20Os12C13,0.0
La20S29O,1.8811999999999998
La20S29O,1.9417999999999997
La20Ti11(S22O3)2,0.2809999999999997
La21Fe8Bi7C12,0.0
La21Fe8Sb7C12,0.0
La21Fe8Sn7C12,0.0
La21Mn8Bi7C12,0.0
La21Mn8Sb7C12,0.0
La21Mn8Sn7C12,0.0
La23Cd4Ir7,0.0
La23Cd4Ni7,0.0
La23Cd4Pt7,0.0
La23Cd4Rh7,0.0
La23Mg4Ir7,0.0
La23Mg4Ni7,0.0
La23Mg4Pt7,0.0
La23Mg4Rh7,0.0
La24Ni12O49,0.0
La24Ni16O55,0.05999999999999961
La26B8O51,3.4409
La2Ag2O5,0.0
La2AgHg,0.0
La2AgIr,0.0
La2AgRu,0.0
La2AgSn,0.0
La2Al(BOs)2,0.0
La2Al2Ge,0.0
La2Al2I,0.0
La2Al3Cu7,0.0
La2Al3GaPd4,0.0
La2Al3Ge,0.0
La2Al3Ge4,0.0
La2Al3Sn,0.0
La2Al4O9,3.7105999999999995
La2Al6CuAu,0.0
La2Al7Cu,0.0
La2Al7Ni,0.0
La2AlGe,0.0
La2AlGe3,0.0
La2AlNi9,0.0
La2AlNi9H,0.0
La2AlNi9H2,0.0
La2AlZn,0.0
La2AsI2,0.0
La2Au,0.0
La2Au5F21,1.8445
La2AuO4,0.0
La2B3Br,0.0
La2B3Cl,0.0
La2B4O9,4.491899999999999
La2B4Rh5,0.0
La2B5H7(C2O7)2,4.326
La2B5H9C4O15,4.3991
La2B8O15,4.385699999999999
La2Be2GeO7,3.8663999999999996
La2Be2O5,3.9238
La2BeGa2O7,3.7895
La2Bi,0.0
La2Bi2O7,0.0
La2Bi2S4OF,0.0
La2Bi4O9,1.5099
La2BiN,0.0
La2BiO2,0.0
La2BiO5,0.8297999999999996
La2Br5,0.2984
La2BrClO2,3.865100000000001
La2C2Cl,0.0
La2C2N4O,3.0946000000000007
La2C3,0.0
La2CCl,0.0
La2CN3Cl,1.8792
La2CO5,4.012099999999999
La2CO5,3.9487000000000005
La2CO5,3.932999999999999
La2Cd(SeO)2,1.9843000000000002
La2Cd17,0.0
La2Cd2O5,1.3022000000000005
La2CdAu2,0.0
La2CdHg,0.0
La2CdIn,0.0
La2CdNi2,0.0
La2CdPd2,0.0
La2CdRh2,0.0
La2CdS4,1.7847999999999997
La2CdSe4,1.0990000000000002
La2CdTe4,0.5282
La2Ce2O7,2.1894
La2Ce2O7,1.8497000000000003
La2CeS4,0.0
La2CeSi2S8I,0.34000000000000075
La2CeTe4,0.0
La2Co14B,0.0
La2Co2I,0.0
La2Co2O5,0.0
La2Co2Se2O3,0.0
La2Co2Si,0.0
La2Co3,0.0
La2Co7,0.0
La2CoIrO6,0.0
La2CoNiO6,0.9971999999999994
La2CoNiO6,0.03900000000000059
La2CoO4,0.36080000000000023
La2CoO4,0.0
La2CoRuO6,0.0
La2CoSb4,0.0
La2CoSi3,0.0
La2CoSn4,0.0
La2CrFeO6,0.3097000000000003
La2CrMoO6,0.0
La2CrO6,1.9180000000000001
La2Cu(NF)2,0.0
La2Cu(SeO3)4,0.4289999999999998
La2Cu2I,0.0
La2Cu2O5,0.0
La2Cu2SeSO2,1.6117000000000008
La2Cu3Ni,0.0
La2CuBiS5,1.0575
La2CuGe6,0.0
La2CuIr,0.0
La2CuIrO6,0.0
La2CuO4,0.0
La2CuRhO6,0.0
La2CuRu,0.0
La2CuS4,0.0
La2CuS4,1.3382000000000005
La2CuSbS5,1.4409999999999998
La2CuSi3,0.0
La2CuSn4,0.0
La2CuSnO6,0.0
La2CuTe4,0.7102999999999993
La2EuO4,0.0
La2Fe(SeO)2,1.1414
La2Fe(SeO)2,1.6513
La2Fe14B,0.0
La2Fe14C,0.0
La2Fe2I,0.0
La2Fe2O5,0.0
La2Fe2O5,1.2609999999999992
La2Fe2S2O3,0.0
La2Fe2S5,0.0
La2Fe2Se2O3,0.0
La2Fe2Si2C,0.0
La2Fe4Sb5,0.0
La2FeAs2RuO2,0.0
La2FeCoO6,0.0
La2FeNiO6,0.0
La2FeSi3,0.0
La2FeSn4,0.0
La2Ga10Ni,0.0
La2Ga12Ni,0.0
La2Ga12Pd,0.0
La2Ga4O9,2.698
La2Ga5Au3,0.0
La2Ga5Cu3,0.0
La2Ga7Au,0.0
La2Ga7Co,0.0
La2GaAg,0.0
La2GaCoO6,1.7713
La2GaCoO6,0.0
La2GaFeO6,2.307899999999999
La2GaN3,1.8032000000000004
La2GaNiO6,0.0
La2GaNiO6,0.6707999999999998
La2Ge2O7,3.5542000000000002
La2Ge2O7,3.7144
La2Ge3,0.0
La2Ge4IrPd3,0.0
La2Ge4IrRh3,0.0
La2Ge4Pd3Pt,0.0
La2Ge5Ir3,0.0
La2Ge5Rh3,0.0
La2Ge5Ru3,0.0
La2GeI2,0.3522999999999996
La2GeI2,0.38590000000000035
La2GeO5,4.021000000000001
La2GeS5,0.9138000000000002
La2GeS5,1.9676
La2H22S6N6O23,4.174300000000001
La2H28PtN4(Cl3O13)2,2.2056
La2H5,0.0
La2Hf2O7,4.232799999999999
La2Hf2O7,4.157
La2Hf2SiS5O24,4.186
La2HfNiO6,2.043399999999999
La2HfO5,4.1968
La2HfO5,3.7213000000000003
La2HfO5,4.0116
La2HfO5,4.0802000000000005
La2HfS5,1.1290000000000004
La2HfSe5,0.8029999999999999
La2HgO4,2.0195000000000003
La2I5,0.17180000000000017
La2I6O19,0.6633
La2In,0.0
La2In11Ni15,0.0
La2InAg,0.0
La2InCu2,0.0
La2InCuS5,0.8944999999999999
La2InCuSe5,0.5091000000000001
La2InGe2,0.0
La2InNi2,0.0
La2InPd2,0.0
La2InRh2,0.0
La2InSi2,0.0
La2Ir7,0.0
La2IrAu,0.0
La2IrPd,0.0
La2Mg,0.0
La2Mg(FeO3)2,2.9957000000000003
La2Mg(NiH4)2,0.8984000000000005
La2Mg17,0.0
La2Mg3H48(NO5)12,3.6847000000000003
La2MgAl,0.0
La2MgAl3,0.0
La2MgBiO6,0.0
La2MgCd,0.0
La2MgCo2Sb2(PbO6)2,1.7999999999999998
La2MgCo2Sb2(PbO6)2,1.6504000000000003
La2MgCoO6,0.2728999999999999
La2MgCr2(CoO6)2,0.4194
La2MgCrO6,1.1380999999999997
La2MgCu2,0.0
La2MgFe2(MoO6)2,1.0145
La2MgFe2(TeO6)2,1.7305000000000001
La2MgFe2(TeO6)2,1.3233000000000006
La2MgFe2(TeO6)2,1.5511000000000008
La2MgFe2(TeO6)2,1.4769999999999994
La2MgFe2(WO6)2,1.4960000000000004
La2MgFe2(WO6)2,1.0793
La2MgFeO6,0.5422000000000002
La2MgFeO6,0.0
La2MgGeO6,0.42329999999999934
La2MgI8,2.0986
La2MgIrO6,0.0
La2MgMnO6,1.7149999999999999
La2MgMnZnO6,2.1155999999999997
La2MgMnZnO6,1.7863999999999995
La2MgMoO6,1.4558999999999997
La2MgMoO6,1.9001000000000001
La2MgNbO6,0.0
La2MgNbO6,0.2118000000000002
La2MgNi2,0.0
La2MgNi9,0.0
La2MgNiO6,1.3640999999999996
La2MgO4,2.4898
La2MgO4,3.112499999999999
La2MgRhO6,0.0
La2MgS4,2.8852999999999995
La2MgS4,2.1744000000000003
La2MgS4,1.6753
La2MgS4,2.2508
La2MgS4,1.7443
La2MgS4,1.9643999999999995
La2MgSbO6,0.0
La2MgSe4,1.8169000000000004
La2MgSe4,1.3457999999999997
La2MgSe4,1.8827000000000003
La2MgSe4,2.5113
La2MgSe4,1.3291
La2MgSi2,0.0
La2MgSnO6,3.852900000000001
La2MgSnO6,4.003500000000001
La2MgTiO6,3.0942000000000007
La2MgTiO6,3.0794000000000006
La2MgTl,0.0
La2MgV2O8,1.0179
La2MgV2O8,1.7410999999999994
La2MgVO6,1.7390999999999996
La2MgWO6,2.215399999999999
La2MgZnCoO6,2.3526
La2MgZnNiO6,3.0029999999999992
La2Mn(SeO)2,1.7513000000000005
La2Mn17C2,0.0
La2Mn2O5,0.04610000000000003
La2Mn2Se2O3,0.6197999999999997
La2Mn3Cu9As7,0.0
La2Mn3Cu9P7,0.0
La2Mn3CuGe4,0.0
La2Mn3FeSi4,0.0
La2Mn3PbO9,0.0
La2Mn3Sb3O14,1.5179
La2MnCoO6,0.0
La2MnCrO6,0.7623999999999995
La2MnCrO6,0.9733
La2MnFeSe2O3,1.516
La2MnGaO6,1.5555000000000003
La2MnNiO6,1.2796999999999992
La2MnNiO6,0.0
La2MnNiO6,1.5804999999999998
La2MnRhO6,0.3776999999999999
La2MnRuO6,0.0
La2MnSb4,0.0
La2MnVO6,0.0
La2MnZnO6,1.5789
La2Mo2O7,0.0
La2Mo2O9,2.8512999999999997
La2Mo4O15,2.5836
La2Mo4O15,3.0748
La2MoO5,0.5754000000000001
La2MoO6,2.705
La2MoO6,2.7923999999999998
La2MoO6,2.2857999999999996
La2MoO6,3.5993
La2NCl3,3.4216
La2Nb2N2O5,1.8865999999999996
La2Nb2N2O5,1.4554999999999998
La2Nb2N2O5,1.4008000000000003
La2Nb2N2O5,1.4914000000000005
La2Nb2N2O5,1.6052999999999997
La2Nb2N2O5,1.5556999999999999
La2Nb2N2O5,1.5453999999999999
La2Nb3(SO4)2,0.3686999999999996
La2Nb4Cu(ClO7)2,0.0
La2NbCrO6,0.0
La2NbNiO6,0.20760000000000112
La2Nd(GaO3)3,3.4333
La2Nd(MnSi)6,0.0
La2Ni12P5,0.0
La2Ni22C3,0.0
La2Ni2I,0.0
La2Ni2O5,0.5829999999999993
La2Ni2O5,1.7262000000000004
La2Ni3,0.0
La2Ni4Ge3P,0.0
La2Ni4GeP3,0.0
La2Ni5B4,0.0
La2Ni5C3,0.0
La2Ni7,0.0
La2NiIrO6,0.0
La2NiO3F2,2.6467
La2NiO4,0.0
La2NiO4,1.9124999999999996
La2NiPt,0.0
La2NiRhO6,0.0
La2NiRuO6,0.0
La2NiSn4,0.0
La2O3,3.8247999999999998
La2O3,3.5319000000000003
La2O3,3.4110000000000005
La2Os2I,0.0
La2P2AuO,0.0
La2P3(HO2)5,4.496
La2P3(HO3)3,4.5066
La2P3H7O11,4.5575
La2P3H7O11,4.4891000000000005
La2P4O13,4.92
La2P4O13,4.6152
La2P4O13,4.7125
La2P4O13,4.7214
La2PBr2,0.0
La2PC,0.0
La2PI2,0.0
La2PbF8,5.3332
La2PbS4,2.1548999999999996
La2PbSe4,1.8284000000000002
La2Pd2O5,1.1790000000000003
La2Pd2Pb,0.0
La2PdO4,0.0
La2PdRu,0.0
La2Pr2O7,0.0
La2Pt2O7,0.9644000000000004
La2Pt2O7,0.4388000000000005
La2Re2Si2C,0.0
La2Re3B7,0.0
La2ReO5,1.0168
La2Rh2I,0.0
La2Rh7,0.0
La2Ru2I,0.0
La2RuAu,0.0
La2RuO5,0.0
KMgBi,0.38549999999999995
KMgCl3,4.4851
KMgCo2(MoO5)2,0.9408000000000001
KMgF3,6.9536999999999995
KMgFe(PO4)2,2.4804000000000004
KMgFe(PO4)2,2.1744
KMgH3,2.458
KMgH5(SeO5)2,3.5252
KMgH9(CO5)2,5.0253000000000005
KMgIn(MoO4)3,3.487
KMgIn(MoO4)3,3.5994
KMgMn16O32,0.0
KMgMn16O32,0.06420000000000003
KMgMn2(MoO5)2,0.15890000000000026
KMgMn2(MoO5)2,0.6088999999999998
KMgMn2AlGe3(O5F)2,1.9956
KMgMn2O4,1.3453000000000004
KMgMn4O8,0.1791999999999998
KMgMn4O8,0.0
KMgMn4O8,0.32430000000000003
KMgNi2H3(SeO5)2,1.9805000000000001
KMgNi2H3(SeO5)2,1.6715000000000002
KMgNi2H3(SeO5)2,1.8690000000000002
KMgNi2H3(SeO5)2,1.1218000000000004
KMgNiIO6,2.1946000000000003
KMgNiIO6,2.3441
KMgP,1.6589
KMgP(H6O5)2,4.7532
KMgP2H5O9,5.0563
KMgPO4,4.5953
KMgSb,1.2671999999999999
KMgSb(PO4)2,3.7352000000000003
KMgSb(PO4)2,3.6885000000000003
KMgSb(PO4)2,3.8709999999999996
KMgV3Cu4O13,0.0020999999999999908
KMgV5(H8O11)2,2.4770000000000003
KMn(CN)3,0.0
KMn(PO3)3,4.0551
KMn(SeO4)2,0.037099999999999994
KMn16O32,0.0
KMn2(MoO5)2,0.0
KMn2Cr2O10,0.0
KMn2O4,0.0
KMn2O4,0.9200000000000002
KMn2O4,0.03730000000000011
KMn2O4,0.8501999999999998
KMn2P2HO9,0.7007000000000001
KMn2P2HO9,0.2427999999999999
KMn2Zn3(Si2O5)6,0.004899999999999904
KMn2Zn3(Si2O5)6,9.999999999976694e-05
KMn3O6,1.0661
KMn4(PO4)3,3.3331000000000004
KMn4(PO4)3,3.0707000000000004
KMn4O8,0.19310000000000005
KMn4O8,0.0
KMn5(SeO3)6,0.4471000000000003
KMn6As7O24,1.3939000000000001
KMn6O12,0.0
KMn6P7O24,3.6268000000000002
KMn8O16,0.0
KMnAs,0.0
KMnAs3F18,3.2695
KMnBP2H2O9,4.6073
KMnBiWO6,0.0
KMnBr3,1.7869
KMnCl3,0.0
KMnCu3Se4,0.05979999999999963
KMnF3,1.7405
KMnF3,3.4193000000000002
KMnF3,2.4058
KMnF3,2.6564
KMnF3,2.7802
KMnF3,2.7828
KMnF3,2.8989000000000003
KMnF3,2.6891999999999996
KMnF4,2.1486
KMnGa2P3(H2O7)2,3.3886
KMnH2OF4,0.0
KMnH3(CO2)3,3.2756
KMnH4Cl3O2,4.1752
KMnH5(SO5)2,4.369800000000001
KMnIO6,1.9674
KMnIO6,1.6860000000000002
KMnN,0.0
KMnN2,0.06420000000000003
KMnO2,1.7098999999999998
KMnO2,1.4647000000000001
KMnO2,0.9667000000000001
KMnO2,1.4207
KMnO2,1.573
KMnO2,0.9530000000000003
KMnO4,1.6493
KMnO4,2.0563
KMnP,0.0
KMnP(OF)3,0.15090000000000003
KMnP2H5O9,3.7649999999999997
KMnP3HO10,1.5610000000000002
KMnP3HO10,0.7785000000000001
KMnP3HO10,0.7163999999999999
KMnPCO7,0.48140000000000005
KMnPH2O5,3.1330999999999998
KMnPO4,1.3002000000000002
KMnSb,0.0
KMnSe2,0.0
KMnSn3O8,0.07319999999999993
KMnSn3O8,0.8738999999999999
KMnSn3O8,0.7946999999999997
KMnTe2,0.0
KMnVO4,2.5793999999999997
KMo(PO4)2,2.4386
KMo2(P2O7)2,1.1436000000000002
KMo2(PO4)3,0.8635000000000002
KMo2Cl7O2,2.6456999999999997
KMo2P3O13,2.0818
KMo2P3O13,2.4585999999999997
KMo3(PO7)2,2.1257
KMo3Br7,2.3695
KMo4(P2O7)4,0.0
KMo4AsO15,2.9154999999999998
KMo5O13,0.2692000000000001
KMoAsO6,2.6593999999999998
KMoCl4O,2.8030999999999997
KMoH8(NF3)2,3.2634999999999996
KMoIO6,2.7834
KMoIO6,2.8641
KMoN2,0.0
KMoO3,0.0
KMoO4,0.6681999999999999
KMoP2O7,4.0042
KMoP3WO12,2.4904999999999995
KMoPClO5,2.0279000000000003
KMoPO6,2.5431
KMoPO7,0.565
KN2,0.0
KN3,3.9394
KNO2,2.4943
KNO2,2.3232
KNO2,2.5157
KNO2,2.4085
KNO3,2.8988
KNO3,3.1418
KNO3,2.8553
KNO3,2.9764999999999997
KNO3,2.9384
KNO3,3.2301
KNO3,3.0984
KNO3,3.0469999999999997
KNO3,2.9813
KNO3,3.2872
KNOF2,3.2687
KNa(BH4)2,6.352399999999999
KNa(BH4)2,6.1608
KNa(BH4)2,6.394
KNa(BH4)2,6.187
KNa(BiO3)2,0.0
KNa(MoO3)2,0.0
KNa(WO3)2,0.0
KNa(WO3)4,0.0
KNa2,0.0
KNa2(NiO2)2,1.0584999999999998
KNa2(PO3)3,5.0584999999999996
KNa22C2S9ClO42,4.3544
KNa2AlF6,5.1973
KNa2AlH6,2.509
KNa2AlH6,2.0222
KNa2AlH6,1.3404
KNa2AuO2,2.0479
KNa2BN2,1.8180999999999998
KNa2BO3,2.7985
KNa2Bi,0.0
KNa2CoF6,3.2241999999999997
KNa2CrF6,3.7636000000000003
KNa2CuO2,1.5144
KNa2FeO3,0.5024
KNa2Ga3(SiO4)3,3.9631999999999996
KNa2GaF6,4.9498
KNa2GaO3,2.5055
KNa2IrF6,1.4971999999999999
KNa2Li3Cr2(Si2O5)6,4.3993
KNa2Li3Fe2(Si2O5)6,4.6926000000000005
KNa2Li3Zr2(Si2O5)6,0.0
KNa2LiTi2Fe2(SiO3)8,2.0557
KNa2LiTi2MnFe(SiO3)8,2.1473
KNa2LiZr2(Si2O5)6,4.7587
KNa2MoF6,2.0919
KNa2NiO2,0.0
KNa2NiO2,1.5423999999999998
KNa2P3H7N3O8,4.7586
KNa2RhF6,2.23
KNa2RuF6,0.0
KNa2Sb,0.6720999999999999
KNa2Si12(BO10)3,5.124700000000001
KNa2TiF6,0.0
KNa2WN3,2.0294999999999996
KNa2Y(Si2O5)3,4.8143
KNa2Zn3(PO4)3,3.9
KNa3Al12H24(SO7)8,5.8109
KNa3Al12Si12(HO6)8,4.6937
KNa3Al4(GeO4)4,3.7542
KNa3Al4(SiO4)4,4.5058
KNa3Al4(SiO4)4,4.0624
KNa3H4,2.9379
KNa3Mg4F12,6.57
KNa3V2(MoO5)2,0.5920000000000001
KNa3V2(MoO6)2,0.5564
KNa3WO5,3.5954
KNa4Cl5,4.5875
KNa4Cl5,4.9206
KNa4Cl5,4.9249
KNa4Cl5,4.9686
KNa4FeO4,2.0784000000000002
KNa4GaO4,2.3967
KNa4GeAs3,0.6355999999999999
KNa4SnSb3,0.2777000000000003
KNa5TeO6,0.9866999999999999
KNa7Al8(SiO4)8,4.3764
KNa7Pb2O7,0.8484
KNa7V6(MoO10)2,0.0
KNa7V6(MoO12)2,0.0
KNa7V6Cr2O20,0.03399999999999981
KNa7V6Cr2O24,0.0
KNa7V7CrO20,0.5669
KNa7V7CrO24,0.0
KNa7V7MoO20,0.06769999999999987
KNa7V7MoO24,0.0
KNa7V8O20,0.8614000000000002
KNa7V8O24,0.22489999999999988
KNa7V8O24,3.2404
KNa9In2O8,1.7136
KNaAl2As2O9,3.4455
KNaAl6Si6(HO6)4,4.737299999999999
KNaAl6Si6(HO6)4,4.736600000000001
KNaAl6Si6(HO6)4,4.7898000000000005
KNaAl6Si6(HO6)4,4.4605999999999995
KNaAs6(PbO3)8,3.4598
KNaCa3Mg10(SiO3)16,3.3255999999999997
KNaCaCo5(SiO3)8,0.8687
KNaCaMg5(SiO3)8,0.000700000000000145
KNaCaMg5Si8(O11F)2,4.6631
KNaCaSi8Ni5O24,0.46030000000000015
KNaCaTh(Si2O5)4,4.908
KNaCl2,4.9632000000000005
KNaCu(Si2O5)2,0.6036999999999999
KNaCu3S3O13,0.15649999999999986
KNaCuP4H18N4O15,0.9878
KNaEuNbO5,0.0
KNaEuTaO5,0.01849999999999996
KNaFe(Si2O5)2,2.9975
KNaGdNbO5,2.7742
KNaGdTaO5,2.6982
KNaGeO3,3.0403000000000002
KNaH12CO9,4.1708
KNaH2,2.8277
KNaH6PtC4N4O3,1.3944
KNaHf4(PO4)6,5.000500000000001
KNaICl,4.0097000000000005
KNaLaNbO5,3.6387000000000005
KNaLaTaO5,3.7150999999999996
KNaLi2(SO4)2,5.2970999999999995