formula,band_gap
Eu(SbSe2)2,0.0
Eu(ScSe2)2,0.0
Eu(SeO4)2,0.0
Eu(SiAg)2,0.0
Eu(SiAu)2,0.0
Eu(SiIr)2,0.0
Eu(SiNi)2,0.0
Eu(SiPd)2,0.0
Eu(SiPt)2,0.0
Eu(SiRh)2,0.0
Eu(SiRu)2,0.0
Eu(SnPd)2,0.0
Eu(YS2)2,0.4535999999999998
Eu(YSe2)2,0.12439999999999962
Eu(ZnAs)2,0.0
Eu(ZnGa)2,0.0
Eu(ZnGe)2,0.0
Eu(ZnP)2,0.0
Eu(ZnSb)2,0.0
Eu(ZnSi)2,0.0
Eu(ZnSn)2,0.0
Eu10Mn6Sb13,0.0
Eu11(ZnAs2)6,0.0
Eu11(ZnSb2)6,0.0
Eu16Sb11,0.0
Eu2(AlAg)5,0.0
Eu2(AlAu2)3,0.0
Eu2(CuNi)5,0.0
Eu2(Ga3Ir)3,0.0
Eu2(Ga3Rh)3,0.0
Eu2(MoO4)3,0.0
Eu2(WO4)3,0.0
Eu2(ZnNi)5,0.0
Eu2(ZrSe2)5,0.0
Eu2AgAu,0.0
Eu2AgBi,0.0
Eu2AgGe,0.0
Eu2AgHg,0.0
Eu2AgPb,0.0
Eu2AgPd,0.0
Eu2AgPt,0.0
Eu2AgRh,0.0
Eu2AgSb,0.0
Eu2AgSn,0.0
Eu2Al2O5,0.0
Eu2Al3Ag,0.0
Eu2Al3Ga,0.0
Eu2Al3O8,0.21910000000000007
Eu2Al42O65,0.24849999999999994
Eu2Al4O9,0.0
Eu2Al6Si3Au2,0.0
Eu2AlP3Pt7,0.0
Eu2As3,0.0
Eu2As3Pt,0.0
Eu2As7Pd12,0.0
Eu2AsAu,0.0
Eu2B2O5,0.08190000000000008
Eu2B4O9,0.0
Eu2B4Rh5,0.0
Eu2B5BrO9,0.8801000000000005
Eu2B5ClO9,0.8729000000000005
Eu2B5Os3,0.0
Eu2BBrN2,0.0
Eu2BIN2,0.1745000000000001
Eu2BIN2,0.18949999999999978
Eu2BPd6,0.0
Eu2Be2SiO7,0.006099999999999994
Eu2BiAu,0.0
Eu2BiS4,0.0
Eu2BiSbO6,0.0
Eu2BrO2,0.0
Eu2C(NCl)2,0.6898
Eu2C(NO)2,0.0
Eu2Cd2As3,0.0
Eu2CdGa,0.0
Eu2CdGe,0.0
Eu2CdHg,0.0
Eu2CdPb,0.0
Eu2CdSn,0.0
Eu2Co12P7,0.0
Eu2Co2O5,0.0
Eu2Co4Si3Ge,0.0
Eu2Co5Ge3,0.0
Eu2CoPtO6,0.0
Eu2CoRuO6,0.0
Eu2CoSi3,0.0
Eu2CoTe2(SO7)2,0.01089999999999991
Eu2CoWO6,0.0
Eu2CrSbO6,0.0
Eu2CrSnO6,0.0
Eu2Cu,0.0
Eu2Cu(GeO3)4,0.1997
Eu2Cu(GeO4)2,0.0
Eu2Cu4Si3Ge,0.0
Eu2Cu6P5,0.0
Eu2CuH4(SO6)2,0.19579999999999997
Eu2CuIr,0.0
Eu2CuRh,0.0
Eu2CuS3,0.0
Eu2CuSi3,0.0
Eu2CuTe2(SO7)2,0.0
Eu2CuTe4,0.0
Eu2DySbO6,0.2193000000000005
Eu2DyTaO6,0.0
Eu2ErTaO6,0.6359000000000004
Eu2FeH6,0.07209999999999983
Eu2FeP3Pt7,0.0
Eu2FeSbO7,0.0
Eu2FeSnO6,0.0
Eu2FeWO6,0.0
Eu2Ga2GeS7,0.0
Eu2Ga2O5,0.0
Eu2Ga3Ir,0.0
Eu2Ga7Ag,0.0
Eu2GaAg3,0.0
Eu2GaHg,0.0
Eu2GdTaO6,0.6783000000000001
Eu2Ge,0.0
Eu2Ge(BO4)2,0.0
Eu2Ge2Se5,0.0
Eu2Ge3Au,0.0
Eu2GeO5,0.0
Eu2GeS4,0.36299999999999955
Eu2GeS4,0.23430000000000017
Eu2GeSe4,0.1383000000000001
Eu2GeSe4,0.1553
Eu2H16S3O20,0.0
Eu2H3Br,0.09100000000000019
Eu2H3Cl,0.07209999999999983
Eu2H4Pd,0.0
Eu2H6Ir,0.0
Eu2H6Ru,0.0
Eu2Hf2(MoO4)7,0.3594
Eu2Hf2O7,0.0
Eu2HfFeO6,0.0
Eu2HfNbO6,0.0
Eu2HfSnO6,0.2862
Eu2HfTiO6,0.0034999999999998366
Eu2HfVO6,0.0
Eu2HfWO6,0.0
Eu2HfZrO6,0.3481000000000005
Eu2HgBi,0.0
Eu2HgGe,0.0
Eu2HgO4,0.0
Eu2HgSb,0.0
Eu2HoTaO6,0.0
Eu2HoTaO6,0.6358999999999995
Eu2I2O,0.04800000000000004
Eu2In,0.0
Eu2In3Cu,0.0
Eu2In3Ni,0.0
Eu2InHg,0.0
Eu2InPd2,0.0
Eu2InPt2,0.0
Eu2Ir2O7,0.0
Eu2LuTaO6,0.5686
Eu2Mg,0.0
Eu2Mg3H10,0.44200000000000017
Eu2MgAg2(WO4)4,0.20699999999999985
Eu2MgAg2(WO4)4,0.18399999999999972
Eu2MgCd,0.0
Eu2MgGa3,0.0
Eu2MgH6,0.34040000000000026
Eu2MgIn,0.0
Eu2MgIrO6,0.0
DyOs2,0.0
DyP,0.0
DyP2(HO2)5,5.614400000000001
DyP3(HO)6,5.3411
DyP3H5O6,1.3218
DyP5,0.09370000000000012
DyP5O14,5.2463999999999995
DyP5O14,5.3927000000000005
DyP5O14,5.4353
DyPO4,5.8933
DyPPd,0.0
DyPPt,0.0
DyPRu2C,0.0
DyPS,0.3391000000000002
DyPS4,2.1596999999999995
DyPa,0.0
DyPa3,0.0
DyPaO4,2.4003999999999994
DyPaRu2,0.0
DyPaTc2,0.0
DyPb3,0.0
DyPbAu,0.0
DyPd,0.0
DyPd2Pb,0.0
DyPd3,0.0
DyPdPb,0.0
DyPt,0.0
DyPt2,0.0
DyPt3,0.0
DyPtF7,2.3154000000000003
DyPu3,0.0
DyRe2,0.0
DyRe2SiC,0.0
DyReB4,0.0
DyRh,0.0
DyRh2,0.0
DyRh2Pb,0.0
DyRh3C,0.0
DyRh5,0.0
DyRhO3,0.8883000000000001
DyRu2,0.0
DyRu3C,0.0
DyS,0.0
DyS2,0.0
DySBr,2.8776
DySCl,2.7618000000000005
DySI,2.7811
DySb,0.0
DySb3,0.0
DySbIr,0.0
DySbMo2O9,2.9684
DySbO4,2.3553
DySbO4,2.3042000000000002
DySbPd,0.0
DySbPd,0.22989999999999977
DySbPt,0.04929999999999968
DySbRh,0.0
DySbRh2,0.0
DySbTe3,0.8479000000000001
DyScO3,4.4597999999999995
DyScRu2,0.0
DyScS3,1.7736999999999994
DyScSb,0.0
DyScZn2,0.0
DySe,0.0
DySe2,0.0
DySeClO3,4.366899999999999
DySeO3,1.7860999999999998
DySi,0.0
DySi2,0.0
DySi2Ni,0.0
DySi2Rh3,0.0
DySi3Ir,0.0
DySi3Ni5,0.0
DySi3Rh5,0.0
DySiAg,0.0
DySiIr,0.0
DySiNi,0.0
DySiNi4,0.0
DySiOs2C,0.0
DySiPd2,0.0
DySiPt,0.0
DySiPt2,0.0
DySiRh,0.0
DySiRu,0.0
DySiRu2C,0.0
DySn2,0.0
DySn3,0.0
DySnAu,0.0
DySnAu2,0.0
DySnGe,0.0
DySnPd,0.0
DySnPd2,0.0
DySnPt,0.0
DySnRh,0.0
DySnRh2,0.0
DySnRu2,0.0
DyTa5Ag2O15,2.5407
DyTa7O19,3.2222999999999997
DyTaO4,4.1282
DyTaO4,4.0284
DyTaOs2,0.0
DyTaRu2,0.0
DyTc2,0.0
DyTe,0.0
DyTe2,0.0
DyTe3,0.0
DyTe3O8,0.0
DyTeAs,0.32920000000000016
DyTh,0.0
DyTh2,0.0
DyTh3,0.0
DyThCN,0.0
DyThFe14B,0.0
DyThFe6,0.0
DyThN2,0.0
DyThRe4,0.0
DyThRu2,0.0
DyThTc2,0.0
DyTiClO3,3.1574
DyTiCo11,0.0
DyTiFe11,0.0
DyTiFe11C,0.0
DyTiFe11N,0.0
DyTiFe5Co6,0.0
DyTiGe,0.0
DyTiO3,0.0
DyTiSi,0.0
DyTl,0.0
DyTl(MoO4)2,3.2866
DyTl(PSe3)2,1.5375
DyTl(WO4)2,2.9170999999999996
DyTl2InS4,1.1655000000000002
DyTl3,0.0
DyTlCu,0.0
DyTlO2,1.4823999999999997
DyTlPd,0.0
DyTlRh2,0.0
DyTlS2,1.5281999999999996
DyTlS2O9,0.2892
DyTlSe2,1.2524999999999995
DyTlTe2,0.7156000000000002
DyTlZn,0.0
DyTm3,0.0
DyTmAg2,0.0
DyTmCd2,0.0
DyTmCu2,0.0
DyTmFe14B,0.0
DyTmHg2,0.0
DyTmIn2,0.0
DyTmIr2,0.0
DyTmMg2,0.0
DyTmMn4,0.0
DyTmO3,4.5264999999999995
DyTmRh2,0.0
DyTmRu2,0.0
DyU2S3O2,0.0
DyUAl4,0.0
DyUN2,0.0
DyUTe4,0.0
DyUTe6,0.0
DyV2(FeCo)5,0.0
DyV2Fe10N,0.0
DyVB4,0.0
DyVO3,1.3773
DyVO4,2.7788000000000004
DyVO4,2.9764
DyVSb3,0.0
DyWBrO4,2.651
DyWC2,0.0
DyWClO4,3.4164
DyWO4,1.9468
DyWO4,2.1716
DyWO5,0.0
DyY(FeO3)2,1.5887000000000002
DyY3,0.0
DyY3O6,4.0215
DyY7O12,4.0298
DyYAg2,0.0
DyYAl2,0.0
DyYC4,0.0
DyYCd2,0.0
DyYCu2,0.0
DyYFe4,0.0
DyYHg2,0.0
DyYIn2,0.0
DyYIr2,0.0
DyYMg2,0.0
DyYMn2O6,0.5779000000000001
DyYO3,3.028
DyYRh2,0.0
DyYTl2,0.0
DyYZn2,0.0
DyZn,0.0
DyZn12,0.0
DyZn2,0.0
DyZn3,0.0
DyZn5,0.0
DyZnCuAs2,0.036399999999999544
DyZnGa,0.0
DyZnIn,0.0
DyZnNi,0.0
DyZnPO,1.2613000000000003
DyZnPd,0.0
DyZnRh,0.0
DyZnRh2,0.0
DyZnSi,0.0
DyZnSn,0.0
DyZr,0.0
DyZr4O9,0.0
DyZr6(PO4)9,3.6918
DyZr9Si9PO40,3.9351000000000003
DyZrF7,5.9275
DyZrRu2,0.0
DyZrSb,0.0
Er,0.0
Er(Al10Cr)2,0.0
Er(Al2Cr)4,0.0
Er(Al2Cu)4,0.0
Er(Al2Fe)4,0.0
Er(Al2Mo)2,0.0
Er(Al3Ni)3,0.0
Er(Al5Fe)2,0.0
Er(Al5Re)2,0.0
Er(Al5Ru)2,0.0
Er(AlC)3,0.026099999999999568
Er(AlCr)6,0.0
Er(AlCu)6,0.0
Er(AlFe)6,0.0
Er(AlFe2)4,0.0
Er(AlGe)2,0.0
Er(AlSi)2,0.0
Er(BC)2,0.0
Er(BIr)4,0.0
Er(BO2)3,5.550699999999999
Er(BRh)4,0.0
Er(BRu)4,0.0
Er(Bi3O5)4,0.0
Er(BiO2)3,2.0482
Er(ClO4)3,5.0285
Er(Co2B)6,0.0
Er(Co2Ge)2,0.0
Er(Co5Mo)2,0.0
Er(CoB)2,0.0
Er(CoB)4,0.0
Er(CoGe)2,0.0
Er(CoGe)6,0.0
Er(CoSi)2,0.0
Er(CrFe5)2,0.0
Er(CrGe)6,0.0
Er(CrSi)2,0.0
Er(CuGe)2,0.0
Er(CuO2)2,0.0
Er(CuS)3,1.4455999999999998
Er(CuS)3,1.2572
Er(CuSi)2,0.0
Er(CuTe)3,0.827
Er(CuTe)3,0.3683999999999994
Er(CuTe)3,0.0
Er(Fe2Ge)2,0.0
Er(Fe5Mo)2,0.0
Er(Fe5Re)2,0.0
Er(Fe5Si)2,0.0
Er(FeB)2,0.0
Er(FeGe)2,0.0
Er(FeGe)6,0.0
Er(FeO2)2,0.0
Er(FeSi)2,0.0
Er(FeSn)6,0.0
Er(GaCo)6,0.0
Er(GaFe)6,0.0
Er(GeRh)2,0.0
Er(GeRu)2,0.0
Er(HO)3,3.7325999999999997
Er(IO3)3,3.4476
Er(Mg4Al3)4,0.0
Er(MnAl)6,0.0
Er(MnAl2)4,0.0
Er(MnGa)6,0.0
Er(MnGe)2,0.0
Er(MnGe)6,0.0
Er(MnSi)2,0.0
Er(MnSn)6,0.0
Er(Mo3S4)2,0.0
Er(Mo3Se4)2,0.0
Er(NO3)3,3.2472
Er(Ni2As)2,0.0
Er(Ni2P)2,0.0
Er(NiB)2,0.0
Er(NiGe)2,0.0
Er(NiP)2,0.0
Er(NiSb)2,0.0
Er(PO3)3,5.6105
Er(PO3)3,5.7459
Er(PPd)2,0.0
Er(PRu)2,0.0
Er(ReO4)2,0.0
Er(ReO4)3,3.5822
Er(SiAu)2,0.0
Er(SiIr)2,0.0
Er(SiNi)2,0.0
Er(SiNi5)2,0.0
Er(SiOs)2,0.0
Er(SiPd)2,0.0
Er(SiPt)2,0.0
Er(SiRh)2,0.0
Er(SiRu)2,0.0
Er(TiGa2)2,0.0
Er(VFe5)2,0.0
Er(VGa2)2,0.0
Er(ZnP)3,0.3703000000000003
Er10Ga5Co,0.0
Er10In20Ni9,0.0
Er10Mn13C18,0.0
Er10NiSb5,0.0
Er10Ru10C19,0.0
Er10W2O21,2.8822
Er11(AlGe4)2,0.0
Er11(In3Ge2)2,0.0
Er11(In3Si2)2,0.0
Er11(Ni10C)6,0.0
Er11Cd45,0.0
Er11Ge10,0.0
Er11Sn10,0.0
Er12(MnC3)5,0.0
Er12(OsC3)5,0.0
Er12(ReC3)5,0.0
Er12Co5Bi,0.0
Er12Co7,0.0
Er12Ga9Ge11,0.0
Er12In3Fe2,0.0
Er13Zn58,0.02619999999999978
Er14(InPd)3,0.0
Er14Ag51,0.0
Er14Ti10O41,1.1144999999999996
Er15C19,0.0
Er15Fe4Ru4C25,0.0
Er15Fe8C25,0.0
Er15Si9C,0.0
Er16In4Ir4O,0.0
Er17(TeRu2)3,0.0
Er18Ti14O55,2.3495000000000004
Er2(Al3Pd)3,0.0
Er2(Al3Rh)3,0.0
Er2(AlNi)5,0.0
Er2(B2Rh3)3,0.0
Er2(Ga3Co)3,0.0
Er2(Ga3Ir)3,0.0
Er2(Ga3Rh)3,0.0
Er2(Ga3Ru)3,0.0
Er2(GePt3)3,0.0
Er2(Ni2B)5,0.0
Er2(Ni5B3)3,0.0
Er2(Ni7B2)3,0.0
Er2(NiB2)3,0.0
Er2(SO4)3,5.983
Er2(SeO3)3,3.9484999999999997
Er2(SeO4)3,0.6339
Er2(WO4)3,4.4841999999999995
Er2(WO4)3,3.9171000000000005
Er20Cu6(Pb3S14)3,1.3189000000000002
Er20Si12C,0.0
Er21(In2Rh5)2,0.0
Er25Ni49P33,0.0
Er2AgAu,0.0
Er2AgHg,0.0
Er2AgIr,0.0
Er2AgOs,0.0
Er2AgPt,0.0
Er2AgRu,0.0
Er2Al,0.0
Er2Al17,0.0
Er2Al3Co,0.0
Er2Al3Cu,0.0
Er2Al3Fe14,0.0
Er2Al3Ga,0.0
Er2Al3Ge4,0.0
Er2Al3Si2,0.0
Er2Al4CoGe2,0.0
Er2Al4NiGe2,0.0
Er2AlCd,0.0
Er2AlCo3,0.0
Er2AlCu,0.0
Er2AlFe3,0.0
Er2AlGe3,0.0
Er2AlGe4,0.0
Er2AlNi2,0.0
Er2AlSi,0.0
Er2AlSi2,0.0
Er2AlZn,0.0
Er2As7Rh12,0.0
Er2Au,0.0
Er2Au5F21,1.7014999999999998
Er2B2Cl2O5,5.0806000000000004
Er2B4C,0.0
Er2B4O9,5.6886
Er2B6Os,0.0
Er2B6Rh,0.0
Er2B6Ru,0.0
Er2BPd6,0.0
Er2BPt6,0.0
Er2Be2GeO7,4.4309
Er2Be2SiO7,5.3446
Er2Bi2O7,0.3730000000000002
Er2BiO2,0.0
Er2C,0.0
Er2C(NO)2,4.0097000000000005
Er2C3,0.0
Er2CdCu2,0.0
Er2CdGe2,0.0
Er2CdHg,0.0
Er2CdIn,0.0
Er2CdOs,0.0
Er2CdPd2,0.0
Er2CdS4,1.1479
Er2CdS4,1.0895
Er2CdSe4,0.5978999999999999
Er2Co12Ni5,0.0
Er2Co12P7,0.0
Er2Co17,0.0
Er2Co3Cu,0.0
Er2Co3Ge5,0.0
Er2Co3Si5,0.0
Er2Co7,0.0
Er2Co7B3,0.0
Er2CoGe2,0.0
Er2CoGe6,0.0
Er2CoIr,0.0
Er2CoSi2,0.0
Er2CoTe2(SO7)2,1.8416000000000001
Er2Cr2C3,0.0
Er2CrGe4,0.0
Er2CrS4,0.0
Er2CrSbO7,2.1271000000000004
Er2Cu(B2O5)2,0.6619000000000002
Er2Cu(GeO3)4,0.7189000000000001
Er2Cu(GeO4)2,0.6651000000000002
Er2Cu2O5,0.31300000000000017
Er2Cu3Si,0.0
Er2CuAu,0.0
Er2CuGe6,0.0
Er2CuIr,0.0
Er2CuNi,0.0
Er2CuO4,0.0
Er2CuOs,0.0
Er2CuPd,0.0
Er2CuPt,0.0
Er2CuRu,0.0
Er2CuSi3,0.0
Er2CuTc,0.0
Er2CuTe2(SO7)2,0.8785000000000003
Er2Fe12P7,0.0
Er2Fe14B,0.0
Er2Fe14C,0.0
Er2Fe14Si3,0.0
Er2Fe17,0.0
Er2Fe17C,0.0
Er2Fe17C2,0.0
Er2Fe17C3,0.0
Er2Fe17H3,0.0
Er2Fe2Si2C,0.0
Er2Fe3Cu,0.0
Er2Fe3Si5,0.0
Er2Fe6Co6P7,0.0
Er2FeC4,0.0
Er2FeSbO7,1.5915000000000008
Er2FeSi2,0.0
Er2FeSi4,0.0
Er2Ga10Os3,0.0
Er2Ga3(Fe7C)2,0.0
Er2Ga3Co,0.0
Er2Ga3Cu,0.0
Er2Ga3Ni,0.0
Er2Ga6Cu11,0.0
Er2Ga8Co,0.0
Er2Ga8Fe,0.0
Er2GaCo2,0.0
Er2GaCu,0.0
Er2GaNi2,0.0
Er2Ge2O7,3.7278999999999995
Er2Ge2Ru,0.0
Er2Ge2S7,0.4884999999999997
Er2Ge5,0.0
Er2Ge5Rh3,0.0
Er2Ge5Ru3,0.0
Er2Ge6Pd,0.0
Er2Ge6Pt,0.0
Er2GeO5,3.6141
Er2GeO5,3.8644000000000003
Er2GeRh3,0.0
Er2H16S3O20,5.412100000000001
Er2H8S3O16,5.6165
Er2Hf2O7,3.0000999999999998
Er2HfS5,1.2528999999999995
Er2In,0.0
Er2In3Cu,0.0
Er2InAg,0.0
Er2InAu2,0.0
Er2InCu2,0.0
Er2InHg,0.0
Er2InNi2,0.0
Er2InPd2,0.0
Er2IrPd,0.0
Er2IrRh,0.0
Er2IrRu,0.0
Er2Mg,0.0
Er2Mg2Ru,0.0
Er2Mg3Ru,0.0
Er2MgAl,0.0
Er2MgCd,0.0
Er2MgCr2O8,1.5186000000000002
Er2MgCr2O8,1.698
Er2MgCr2O8,0.9809000000000001
Er2MgCu2,0.0
Er2MgGa,0.0
Er2MgGe2,0.0
Er2MgIn,0.0
Er2MgMo2(ClO4)2,1.7416
Er2MgNi2,0.0
Er2MgOs,0.0
Er2MgS4,1.4383000000000004
Er2MgS4,2.5431000000000004
Er2MgS4,2.3328999999999995
Er2MgS4,1.9422999999999995
Er2MgS4,1.4576999999999996
Er2MgS4,2.6921
Er2MgS4,2.0129
Er2MgSe4,1.385
Er2MgSe4,2.0201
Er2MgSe4,1.5491000000000001
Er2MgSe4,2.077
Er2MgSe4,2.2366
Er2MgSe4,1.1534
Er2MgSi2,0.0
Er2MgTc,0.0
Er2MgTiO6,3.2352999999999996
Er2MgTl,0.0
Er2MgTl2(WO4)4,1.9811999999999999
Er2MgTl2(WO4)4,1.9495
Er2MgTl2(WO4)4,1.8859999999999997
Er2MgTl2(WO4)4,2.1066000000000003
Er2MgV2O8,1.5489000000000002
Er2MgV2O8,1.6770999999999998
Er2Mn(GeO3)4,2.0246
Er2Mn12P7,0.0
Er2Mn17C3,0.0
Er2Mn2O7,0.0
Er2Mn3Ga,0.0
Er2Mn3Sb3O14,1.1665
Er2Mn3Si5,0.0
Er2MnC4,0.0
Er2MnGa3,0.0
Er2MnGe4,0.0
Er2MnS4,0.0
Er2Mo2C3,0.0
Er2Mo3H2Se2O17,1.6125000000000003
Er2Mo4O15,3.2866999999999997
Er2MoO6,1.8785000000000003
Er2Nb2O7,0.0
Er2Nb2S7O30,0.1438
Er2Nb3Ge4,0.0
Er2Ni12As7,0.0
Er2Ni12P7,0.0
Er2Ni17,0.0
Er2Ni2Sn,0.0
Er2Ni7,0.0
Er2NiAs2,0.0
Er2NiGe6,0.0
Er2NiIr,0.0
Er2NiOs,0.0
Er2NiRu,0.0
Er2NiRuO6,0.0
Er2NiSn6,0.0
Er2O3,2.8826
Er2O3,4.196899999999999
Er2O3,4.1023
Er2O3,3.9629000000000003
Er2OsC2,0.0
Er2OsPd,0.0
Er2P4O13,5.4556
Er2P4O13,5.477
Er2P4O13,5.3543
Er2P7Rh12,0.0
Er2Pb2O7,0.9168999999999996
Er2PbS4,2.2510000000000003
Er2PbS4,2.1115000000000004
Er2PbSe4,1.8036000000000003
Er2Pd2Pb,0.0
Er2PdAu,0.0
Er2PdPt,0.0
Er2PdRh,0.0
Er2PdRu,0.0
Er2Pt,0.0
Er2Pt2O7,1.5404999999999998
Er2PtAu,0.0
Er2Re2Si2C,0.0
Er2Re3Si5,0.0
Er2ReB6,0.0
Er2ReC2,0.0
Er2Ru2O7,0.0
Er2RuAu,0.0
Er2RuPt,0.0
Er2RuRh,0.0
Er2S2O,2.6476
Er2S3,0.6266999999999996
Er2S3,1.4691
Er2S3,1.9718999999999998
Er2S3,1.1633
Er2SO2,3.0733
Er2Sb2O7,1.7511999999999999
Er2SbO2,0.0
Er2Sc3Si4,0.0
Er2Se3,0.23249999999999993
Er2Se3,0.7923
Er2Se3,1.6222000000000003
Er2SeO2,2.1741000000000006
Er2Si2O7,4.7985999999999995
Er2Si2O7,4.918
Er2Si2PbO8,3.3232000000000004
Er2Si3,0.0
Er2Si3Ni,0.0
Er2Si3Pd,0.0
Er2Si3Rh,0.0
Er2Si4CN6,3.2788000000000004
Er2Si4Mo3,0.0
Er2Si5Ni3,0.0
Er2Si5Rh3,0.0
Er2Si5Ru3,0.0
Er2SiGe,0.0
Er2SiO5,4.650399999999999
Er2SiO5,4.7585999999999995
Er2SiRh3,0.0
Er2SiSO4,2.811400000000001
Er2SiSeO4,2.5586
Er2Sn2O7,2.6825
Er2Sn3(PbS4)3,0.5288000000000004
Er2Sn5,0.0
Er2SnAu2,0.0
Er2Tc2O7,0.0
Er2TcAg,0.0
Er2Te3,0.05210000000000026
Er2Te4O11,3.2333
Er2Te5O13,3.0079999999999996
Er2TeO2,0.6536999999999997
Er2TeO2,0.5423999999999998
Er2TeO2,0.48719999999999963
Er2TeO6,2.4522999999999997
Er2TeO6,3.0329
Er2TeO6,3.0126999999999997
Er2TeS2,1.77
Er2ThOF10,0.9685
Er2Ti12(CuO4)9,0.07929999999999993
Er2Ti2O7,2.6986
Er2Ti3Si4,0.0
Er2TiCuO6,0.0
Er2TiO5,2.9253
Er2TiO5,2.2043
Er2TiO5,2.8258
Er2TiO5,2.8529
Er2TiO5,2.9668999999999994
Er2TiO5,3.2962
Er2TlAg,0.0
Er2TlCd,0.0
Er2TlCu3S5,1.4287999999999998
Er2TlHg,0.0
Er2TlIn,0.0
Er2TlZn,0.0
Er2U3O11,0.0
Er2US3O2,0.0
Er2V2O7,0.0
Er2VFeO6,1.4206000000000003
Er2WO6,3.6554
Er2WO6,3.7911
Er2WO6,3.2025000000000006
Er2Zn17,0.0
Er2ZnAg,0.0
Er2ZnAu,0.0
Er2ZnCu,0.0
Er2ZnGa,0.0
Er2ZnHg,0.0
Er2ZnIn,0.0
Er2ZnIr,0.0
Er2ZnOs,0.0
Er2ZnRu,0.0
Er2ZnS4,2.3854
Er2ZnTc,0.0
Er2ZnTe2(SO7)2,3.9585999999999997
Er2Zr2O7,4.3849
Er2Zr2O7,2.8423000000000003
Er2Zr2O7,2.3925000000000005
Er2Zr8O19,2.4058
Er2ZrS5,1.2611999999999997
Er3(AgPb2)2,0.0
Er3(Al2Fe)2,0.0
Er3(Al3Os)4,0.0
Er3(Al3Ru)4,0.0
Er3(AlNi3)2,0.0
Er3(Co2Sn)4,0.0
Er3(CoGe2)2,0.0
Er3(CuGe)4,0.0
Er3(CuSi)4,0.0
Er3(CuSn)4,0.0
Er3(FeGe)4,0.0
Er3(GaNi3)2,0.0
Er3(GeRh)2,0.0
Er3(In2Co)2,0.0
Er3(P3Pd10)2,0.0
Er3(SbPd2)4,0.0
Er3(Si3Pd10)2,0.0
Er3(Si3Ru)4,0.0
Er3(SiNi3)2,0.0
Er3Al2,0.0
Er3Al2Ni6H7,0.0
Er3Al3CoGe2,0.0
Er3Al3Cr2O12,3.5394999999999994
Er3Al3NiGe2,0.0
Er3Al5O12,4.758
Er3AlC,0.0
Er3AlN,0.0
Er3AlNi8,0.0
Er3B5O12,5.3497
Er3B7W,0.0
Er3BeCrS7,0.0
Er3C4,0.0
Er3Co,0.0
Er3Co11B4,0.0
Er3Co29(Si2B5)2,0.0
Er3Co2Si3,0.0
Er3Co4Ge13,0.0
Er3Co6Sn5,0.0
Er3CoSi3,0.0
Er3CrB7,0.0
Er3CrS6,0.23270000000000035
Er3Cu11Si4,0.0
Er3Cu3Sb4,0.33389999999999986
Er3CuGeS7,1.7469000000000001
Er3CuSiS7,1.8759999999999994
Er3CuSnS7,1.6421000000000001
Er3Fe2Ge3,0.0
Er3Fe2Si3,0.0
Er3Fe5O12,1.3963
Er3FeB7,0.0
Er3FeGe3,0.0
Er3FeSi3,0.0
Er3Ga,0.0
Er3Ga15Ru4,0.0
Er3Ga2,0.0024999999999999467
Er3Ga2Ge3,0.0
Er3Ga5,0.0
Er3Ga5O12,3.3298000000000005
Er3Ga8Ag3,0.0
Er3Ga8Au3,0.0
Er3Ga8Ir3,0.0
Er3Ga8Ni3,0.0
Er3Ga8Rh3,0.0
Er3Ga9Pt2,0.0
Er3GaCoS7,0.0
Er3GaNiS7,0.0
Er3GaO6,3.5389999999999997
Er3GaS6,2.1064999999999996
Er3Ge13Ir4,0.0
Er3Ge13Os4,0.0
Er3Ge13Rh4,0.0
Er3Ge13Ru4,0.0
Er3Ge3Ru2,0.0
Er3Ge4,0.0
Er3Hg,0.0
Er3In,0.0
Er3In5,0.0
Er3InN,0.0
Er3Ir,0.0
Er3Ir2,0.0
Er3Lu,0.0
Er3Mg,0.0
Er3Mn3Ga2Ge,0.0
Er3Mn3Ga2Si,0.0
Er3MnB7,0.0
Er3Ni,0.0
Er3Ni13B2,0.0
Er3Ni19B10,0.0
Er3Ni2,0.0
Er3Ni7B2,0.0
Er3NiGe2,0.0
Er3O2F5,5.6188
Er3OF10,0.0
Er3Os,0.0
Er3P4Pd7,0.0
Er3Pb,0.0
Er3Pb4F17,5.0743
Er3Pd2,0.0
Er3Pd4,0.0
Er3Pt,0.0
Er3Pt4,0.0
Er3ReB7,0.0
Er3Rh,0.0
Er3Rh2,0.0
Er3Ru,0.0
Er3Ru2,0.0
Er3RuI3,0.0495000000000001
Er3S2OF3,1.7450999999999999
Er3S3OF,0.47170000000000023
Er3Sb4Au3,0.6124999999999998
Er3Sb5O12,3.1169000000000002
Er3SbO7,2.783
Er3Sc2Al3O12,4.8641000000000005
Er3Sc2S7,0.0
Er3ScS6,1.0477999999999996
Er3ScS6,1.0170999999999997
Er3ScS6,1.0296999999999996
Er3Si11Pt23,0.0
Er3Si13Ir4,0.0
Er3Si13Os4,0.0
Er3Si3Ni,0.0
Er3Si3O10F,5.2285
Er3SiSe2O10F,4.0849
Er3Sn,0.0
Er3Sn7,0.0
Er3TaO7,3.1754000000000002
Er3TaO7,3.3585
Er3TaO7,3.3568
Er3TaO7,3.5103000000000004
Er3Th,0.0
Er3Tl2Cu5S8,1.2826000000000004
Er3Tl5,0.0
Er3Tm,0.0
Er4(Al8Pd3)3,0.0
Er4(Al8Pt3)3,0.0
Er4(B2O5)3,5.656499999999999
Er4(CoB2)3,0.0
Er4BClO7,4.7594
Er4C7,0.39120000000000044
Er4CdIr,0.0
Er4CdNi,0.0
Er4CdPd,0.0
Er4CdPt,0.015800000000000036
Er4CdS7,1.1812999999999998
Er4Co3,0.0
Er4CoB13,0.0
Er4CoSn8,0.0
Er4CrS7,0.0
Er4CrSe7,0.0
Er4Cu5P7,0.3639999999999999
Er4CuGe8,0.0
Er4Fe29Si5,0.0
Er4Fe34C3,0.0
Er4FeS7,0.2732999999999999
Er4Ga12Ni,0.0
Er4Ga12Pd,0.0
Er4Ga12Pt,0.0
Er4Ga16Co3,0.0
Er4Ga21Ni10,0.0
Er4Ge6Ir7,0.0
Er4Ge6Os7,0.0
Er4Ge6Rh7,0.0
Er4I5,0.0
Er4In(NiGe2)2,0.0
Er4In5S13,0.0
Er4InIr,0.0
Er4InRh,0.0
Er4LuNi10(B2C)5,0.0
Er4MgCo,0.0
Er4MgGe4,0.0
Er4MgNi,0.022299999999999986
Er4MgRh,0.0
Er4MgS7,1.0643000000000002
Er4MgTi2O10,0.20980000000000043
Er4MgTi2O10,0.0
Er4MnGe8,0.0
Er4MnS7,0.5553999999999997
Er4Mo4O11,0.0
Er4Ni13C4,0.0
Er4Ni2C5,0.0
Er4NiB13,0.0
Er4NiSn8,0.0
Er4OsBr4,0.7195000000000005
Er4Sb3,0.0
Er4Si2S3O7,2.6296
Er4Si3O11F2,5.0561
Er4Si9Ir13,0.0
Er4SiNi3,0.0
Er4TaV7B24,0.0
Er4ThCN4,0.0
Er4US7,0.0
Er4Zn5Ge6,0.020800000000000374
Er4Zr3O12,4.1461
Er4Zr3O12,4.1668
Er5(Co2Si7)2,0.0
Er5(CoTe)2,0.0
Er5(Ge5Ir2)2,0.0
Er5(Ge5Rh2)2,0.0
Er5(GeSb)2,0.0
Er5(In2Ni)2,0.0
Er5(In2Pd)2,0.0
Er5(In2Pt)2,0.0
Er5(MoO6)2,0.0
Er5(NiTe)2,0.0
Er5(ReO6)2,0.011700000000000266
Er5(Si5Ir2)2,0.0
Er5(SiSb)2,0.0
Er5(Sn3Rh)6,0.0
Er5Al3Ni3Ge4,0.0
Er5B2(O2F3)3,5.9864
Er5Bi3,0.0
Er5BiAu2,0.0
Er5BiPd2,0.0
Er5BiPt2,0.0
Er5C2Br9,1.7638000000000003
Er5Co19P12,0.0
Er5CoBi2,0.0
Er5CoSb2,0.0
Er5CuPb3,0.0
Er5Ga2As,0.0
Er5Ga3,0.0
Er5Ge3,0.0
Er5Ge3C,0.0
Er5Ge4,0.0
Er5In3,0.0
Er5InNi2,0.0
Er5Ir2,0.0
Er5Ir3,0.0
Er5Mg,0.0
Er5Mg(MoO6)2,0.7666000000000004
Er5Mg(MoO6)2,0.9513000000000003
Er5Mg24,0.0
Er5Ni2Bi,0.0
Er5Ni2Sb,0.0
Er5NiPb3,0.0
Er5P12Ir19,0.0
Er5P12Ru19,0.0
Er5Pb3,0.0
Er5Pb4,0.0
Er5Pt3,0.0
Er5Pt4,0.0
Er5Re2C7,0.0
Er5Rh3,0.0
Er5Ru2,0.0
Er5S7,0.0
Er5Sb3,0.0
Er5SbAu2,0.0
Er5SbPd2,0.0
Er5SbPt2,0.0
Er5Si3,0.0
Er5Si3B,0.0
Er5Si3C,0.0
Er5Si4,0.0
Er5Sn3,0.0
Er5Tl3,0.0
Er5Zr3(Ni4As3)4,0.0
Er6(Ga3Co)7,0.0
Er6Ag(GeS7)2,0.0
Er6Al2Ge7,0.0
Er6Al3Si,0.03469999999999995
Er6Al41Cr6,0.0
Er6Al43Cr4,0.0
Er6Al43Mo4,0.015500000000000291
Er6Al43V4,0.0
Eu2MgPtO6,0.0
Eu2MgS4,0.0
Eu2MgSe4,0.0
Eu2MgSe4,0.009799999999999809
Eu2MgSi2O7,0.011800000000000033
Eu2MgSn,0.0
Eu2MgTi2(ClO3)2,0.25039999999999996
Eu2MgTl,0.0
Eu2MgV2O8,0.0
Eu2MgWO6,0.27859999999999996
Eu2Mn(GeO3)4,0.0
Eu2Mn2O5,0.0
Eu2Mn2O7,0.0
Eu2Mn3Sb3O14,0.0
Eu2Mn5Al12,0.0
Eu2MnP3Pt7,0.0
Eu2MnRhO6,0.0
Eu2MnSbO7,0.0
Eu2MnSi2O7,0.0
Eu2MnWO6,0.38759999999999994
Eu2Mo(WO6)2,0.0
Eu2Mo2O7,0.0
Eu2Mo2WO12,0.0
Eu2MoO6,0.0
Eu2N,0.0
Eu2Nb4O13,0.0
Eu2Nb5O9,0.0
Eu2NbBiO6,0.1227999999999998
Eu2NbFeO6,0.0
Eu2NbGaO7,0.0
Eu2NbInO6,0.3272000000000004
Eu2NbSnO6,0.0
Eu2NbWO6,0.0
Eu2NbZnO6,0.0
Eu2Ni12P5,0.0
Eu2Ni12P7,0.0
Eu2Ni17,0.0
Eu2Ni3Sb4,0.0
Eu2Ni7P4,0.0
Eu2NiGe3,0.0
Eu2NiPtO6,0.0
Eu2NiRuO6,0.0
Eu2NiSbO6,0.0
Eu2NiWO6,0.4429999999999996
Eu2O3,0.0
Eu2P3(HO3)3,0.1379
Eu2P3Pt4,0.0
Eu2PBr,0.0
Eu2PCl,0.0
Eu2PI,0.0
Eu2Pb2O7,0.0
Eu2PdAu,0.0
Eu2Pt2O7,0.0
Eu2PtAu,0.0
Eu2Re6S11,0.0
Eu2ReO5,0.0
Eu2Ru2O7,0.0
Eu2S3,0.0
Eu2SO2,0.0
Eu2SO6,0.0
Eu2Sb3,0.0
Eu2SbAu,0.0
Eu2Sc2O5,0.0
Eu2ScNbO7,0.0
Eu2Se3,0.0
Eu2SeO2,0.0
Eu2SeS,0.0
Eu2Si,0.0
Eu2Si2O7,0.0
Eu2Si3Ag,0.0
Eu2Si3Au,0.0
Eu2Si3Ni,0.0
Eu2Si3Ni8,0.0
Eu2Si3Pd,0.0
Eu2Si4IrPd3,0.0
Eu2Si4Pd3Au,0.0
Eu2Si5Pt3,0.0
Eu2SiCl2O3,0.6427999999999994
Eu2SiN3,0.0
Eu2SiO4,0.05689999999999973
Eu2SiO4,0.28889999999999993
Eu2SiO5,0.0
Eu2SiS4,0.28940000000000055
Eu2Sn,0.0
Eu2Sn2O7,0.0
Eu2Sn5Au2,0.0
Eu2SnHg,0.0
Eu2SnS4,0.0
Eu2SnSe5,0.0
Eu2Ta2O7,0.0
Eu2TaAlO6,0.33940000000000037
Eu2Te4O11,0.0
Eu2TeO2,0.0
Eu2Ti12(CuO4)9,0.026200000000000223
Eu2Ti2O5,0.0
Eu2Ti2O7,0.0
Eu2TiCuO6,0.0
Eu2TiInO6,0.0
Eu2TiNbO6,0.0
Eu2TiO4,0.0
Eu2TiO5,0.0
Eu2TlCd,0.0
Eu2TlCl5,0.6218000000000004
Eu2TlHg,0.0
Eu2TlIn,0.0
Eu2TlSn,0.0
Eu2TlZn,0.0
Eu2TmTaO6,0.0
Eu2V2O5,0.0039999999999995595
Eu2VO4,0.0
Eu2VSbO6,0.0
Eu2VWO6,0.39420000000000055
Eu2WO6,0.0
Eu2Y2O5,0.0
Eu2YNbO6,0.2671000000000001
Eu2YTaO6,0.5364000000000004
Eu2Zn2As3,0.0
Eu2Zn2CuP3,0.0
Eu2Zn2P3,0.0
Eu2Zn3Ge,0.0
Eu2ZnAg,0.0
Eu2ZnBi2,0.0
Eu2ZnCd,0.0
Eu2ZnGa,0.0
Eu2ZnGe3,0.0
Eu2ZnHg,0.0
Eu2ZnIn,0.0
Eu2ZnIr,0.0
Eu2ZnP2,0.0
Eu2ZnP3Pt7,0.0
Eu2ZnPtO6,0.0
Eu2ZnRh,0.0
Eu2ZnSb2,0.0
Eu2ZnSn,0.0
Eu2ZnWO6,0.46950000000000003
Eu2Zr2O7,0.0
Eu2ZrCrO6,0.0
Eu2ZrFeO6,0.0
Eu2ZrNbO6,0.0
Eu2ZrO4,0.10580000000000034
Eu2ZrSnO6,0.5011999999999999