formula,band_gap
Be3Zn4Si3SO12,4.2033
Be3ZnO4,4.2643
Be3ZnS4,2.7906
Be46Ir7,0.0
Be46Os7,0.0
Be46Rh7,0.0
Be46Ru7,0.0
Be4AlCr,0.0
Be4AlCu,0.0
Be4AlFe,0.0
Be4AlNi,0.0
Be4B,0.0
Be4CoGe,0.0
Be4CrMo,0.0
Be4CuSi,0.0
Be4FeGe,0.0
Be4N6O19,3.7112999999999996
Be4N6O19,3.592
Be4NbMo,0.0
Be4NiGe,0.0
Be4Si2H2O9,5.7425
Be4Si2O9,0.26900000000000013
Be4SiNi,0.0
Be4TeO7,1.2806999999999995
Be5(Al2Fe)2,0.0
Be5Au,0.0
Be5Co,0.0
Be5Fe,0.0
Be5Pd,0.0
Be5Pt,0.09529999999999994
Be6Al4Si12O37,0.7827999999999999
Be8NbCr3,0.0
Be8P8H34N8O33,3.3597
Be8Ru,0.0
BeAgPO4,2.083
BeAl2O4,6.117700000000001
BeAl3,0.0
BeAl6O10,5.4595
BeAlB,0.0
BeAlBO3F2,5.5792
BeAlH5,2.4698
BeAlH5,3.3021000000000003
BeAlIr2,0.0
BeAlRh2,0.0
BeAlSiHO5,4.976799999999999
BeAlSiN3,5.0289
BeAlSiO5,0.42479999999999984
BeAsRu2,0.0
BeAu,0.0
BeAu2,0.0
BeAu3,0.0
BeB2,0.0
BeBr2,5.180400000000001
BeCN2,5.5087
BeCN2,3.8512999999999993
BeCl2,6.5805
BeCl2,6.3359000000000005
BeCl2,6.3751
BeCl2,6.636
BeCl2,6.5139
BeCo,0.0
BeCo2Ge,0.0
BeCo2Si,0.0
BeCr2O4,2.8371000000000004
BeCrFe2,0.0
BeCrO4,2.1140999999999996
BeCrO4,1.6855
BeCrO4,1.7039
BeCrRu2,0.0
BeCu,0.0
BeF2,6.7317
BeF2,8.3235
BeF2,8.0867
BeF2,7.8758
BeF2,8.0368
BeF2,6.7268
BeFe2Si,0.0
BeFe3,0.0
BeFeRh2,0.0
BeGaCo2,0.0
BeGaH5,4.726100000000001
BeGaIr2,0.0
BeGaRh2,0.0
BeGeAs2,0.4035999999999995
BeGeN2,3.3941
BeGeP2,0.9023000000000003
BeGeRu2,0.0
BeH10(NF)3,5.1225
BeH12(N2Cl)2,4.5575
BeH12C4(SBr)2,4.4445
BeH12S2(NO5)2,5.2492
BeH14(I2O9)2,3.3177
BeH16C4S2(ClO2)2,4.3852
BeH2,5.3844
BeH24C8S4(ClO2)2,3.6696
BeH2SeO4,4.8312
BeH4NF3,6.287599999999999
BeH4NF3,6.3782
BeH6(NF)2,5.8694
BeH6(NF2)2,7.2812
BeH8(ClO2)2,5.6128
BeH8(IO5)2,3.8891999999999998
BeH8(NF2)2,6.558
BeH8(NF2)2,6.801
BeH8(NF2)2,6.6477
BeH8(NF2)2,6.4265
BeH8(NO5)2,3.4909999999999997
BeH8SO8,5.2146
BeH8SO8,5.5870999999999995
BeH8SeO8,4.1041
BeI2,3.5667000000000004
BeI2,3.6032
BeMo3,0.0
BeNbRu2,0.0
BeNi,0.0
BeNi3,0.0
BeO,6.847700000000001
BeO,7.463900000000001
BeO,7.0846
BeP2,0.3944000000000001
BeP2(HO)4,6.0155
BePH3O5,5.4113999999999995
BePH4NO4,0.0
BePO4,0.0
BePbF4,5.4214
BePbF4,5.3377
BePd,0.0
BePd2,0.0
BePd3,0.0
BeRh,0.0
BeRu2W,0.0
BeS,3.1453
BeSO4,6.9502
BeSe,2.6636999999999995
BeSi(AgO2)2,0.7882000000000002
BeSiAs2,1.0226000000000006
BeSiIr2,0.0
BeSiN2,2.8722000000000003
BeSiN2,3.5618
BeSiN2,5.1459
BeSiNi2,0.0
BeSiOs2,0.0
BeSiP2,0.8007
BeSiRh2,0.0
BeSiRu2,0.0
BeSnAs2,0.6936999999999998
BeSnP2,0.9223000000000008
BeTe,2.2711999999999994
BeTe,2.0172999999999996
BeTl2F4,4.4906
BeTlAsO4,3.6850999999999994
BeTlPO4,4.0851
BeVCo2,0.0
BeVFe2,0.0
BeVOs2,0.0
BeVRu2,0.0
BeZn3O4,1.5432000000000001
BeZn3S4,2.9164
BeZnO2,2.806
BeZnS2,2.9402
Bi,0.0
Bi(BO2)3,3.8655
Bi(BO2)3,3.8438000000000003
Bi(BO2)3,3.858599999999999
Bi(BO2)3,3.9576
Bi(BO2)3,3.4257
Bi(C2N3)3,3.34
Bi(IO3)3,2.807
Bi(Mo2Cl5)3,1.8923999999999999
Bi(Mo3S4)2,0.0
Bi(PO3)3,4.5202
Bi(PO3)4,0.0
Bi(PO3)4,4.8675
Bi(PdO2)2,0.0
Bi(SO4)2,0.04460000000000003
Bi(SbTe2)3,0.1459999999999999
Bi(SbTe2)3,0.2587999999999999
Bi(TeBr2)2,1.0593
Bi(W2Cl5)3,2.2069
Bi(W2Cl5)3,1.9545000000000003
Bi(WBr3)3,1.9682
Bi(WO4)2,0.0
Bi(WO4)2,0.19019999999999992
Bi10(MoO8)3,2.7186999999999997
Bi10(Pb2O7)3,2.3528999999999995
Bi10Te2Br4O17,1.0230999999999995
Bi10Te2I4O17,1.4188
Bi11(Se4Cl3)3,1.1162999999999998
Bi11PO20,0.0
Bi12AsO20,0.0
Bi12BO20,0.0
Bi12Br5O16,0.0
Bi12Cl5O16,0.0
Bi12Ir12O41,0.0
Bi12IrO20,0.0
Bi12O16F5,0.0
Bi12PO20,0.0
Bi12Pb2Cl6O17,1.0288000000000004
Bi12Pb4O21,0.0
Bi12PbO19,2.0968999999999998
Bi12PbO20,1.6917999999999997
Bi12PtCl12,0.8948
Bi12Rh12O41,0.0
Bi12Rh3Br2,0.0
Bi12Rh3Cl2,0.0
Bi12RuO20,0.7278000000000002
Bi12SbO20,0.30180000000000007
Bi13Mo6(AsO14)3,2.5928000000000004
Bi13O20,0.3461999999999996
Bi13Pb3Cl7O19,0.5842999999999998
Bi13Pt3I7,0.07139999999999969
Bi13Pt3I7,0.06770000000000032
Bi14Mo5O36,2.6026999999999996
Bi14MoO24,0.0
Bi14MoO24,2.6039
Bi14Pb4Cl8O21,0.5236999999999998
Bi14PdBr16,1.1683
Bi14Rh3,0.0
Bi14SO24,1.1040999999999999
Bi14SO24,2.6584000000000003
Bi14Te13S8,0.5462999999999996
Bi14WO24,0.0
Bi14WO24,2.5441000000000003
Bi15AsO25,2.3058
Bi15PO25,2.092199999999999
Bi15Ru16O55,0.0
Bi16O25,0.0
Bi16Pt11I6,0.0
Bi16Ru16O55,0.0
Bi17(WO11)3,1.2992
Bi17As5Pb5O43,2.4892
Bi17P5Pb5O43,2.5568999999999997
Bi17W3O34,0.2248000000000001
Bi17W3O34,2.0217
Bi19(O9F)3,2.0105000000000004
Bi19(S9Br)3,1.3293
Bi19(S9I)3,1.2928999999999995
Bi19O30,0.0
Bi2(BO3)3,0.0
Bi2(CN2)3,1.9812
Bi2(CN2)3,1.5671000000000002
Bi2(MoO4)3,2.4798
Bi2(PO4)3,0.0048000000000000265
Bi2(PO4)3,0.0
Bi2(PSe3)3,1.2479999999999998
Bi2(PSe3)3,1.4152
Bi2(Pb2S3)3,0.4679000000000002
Bi2(Pb2S3)3,0.7565999999999997
Bi2(PbS2)3,0.8642000000000003
Bi2(PbS2)3,0.5274999999999999
Bi2(S2O7)3,4.0708
Bi2(SO4)3,4.177
Bi2(SO4)3,4.2334000000000005
Bi2(SO4)3,3.3146999999999998
Bi2(SO4)3,3.8124000000000002
Bi2(SO4)3,4.2016
Bi2(SO4)3,3.7173
Bi2(SeO3)3,3.2697000000000003
Bi20(PtBr12)3,1.23
Bi20(PtI12)3,1.1370999999999998
Bi24B2O39,2.0694999999999997
Bi24Br10O31,1.476
Bi24Cl10O31,2.0638000000000005
Bi24Ru3Br20,0.7835999999999999
Bi25BO39,1.8929000000000005
Bi25O38,0.3201999999999998
Bi26Mo10O69,2.0326999999999997
Bi26Mo10O69,1.5536000000000003
Bi28Mo2O47,2.0831000000000004
Bi2AsO6,0.0
Bi2Au5F21,1.4016
Bi2AuO5,0.0
Bi2B2O7,0.5085999999999999
Bi2B2O7,0.0
Bi2B3HO8,3.2251999999999996
Bi2B8O15,4.0668
Bi2B8O15,4.347700000000001
Bi2BO5,0.0
Bi2BrClO2,2.3465
Bi2CO5,1.0710999999999995
Bi2CO5,2.2747
Bi2CO5,2.04
Bi2CO5,2.1533000000000007
Bi2H18C3(IN)9,2.786
Bi2I4O13,3.0737
Bi2IBr,0.19430000000000014
Bi2Ir,0.0
Bi2Ir2O7,0.0
Bi2Mo2O9,2.8052
Bi2Mo2Se2O13,2.8105
Bi2MoO6,1.8751999999999995
Bi2MoO6,2.5896
Bi2MoO6,0.5192999999999994
Bi2MoO6,0.8686000000000007
Bi2N2O9,0.010600000000000054
Bi2O3,0.10029999999999983
Bi2O3,1.1218000000000004
Bi2O3,0.6115999999999997
Bi2O3,0.0
Bi2O3,2.4257
Bi2O3,1.4874999999999998
Bi2O3,2.0782000000000007
Bi2O3,2.5813999999999995
Bi2O3,1.4737
Bi2O3,1.7487000000000004
Bi2O3,2.5398000000000005
Bi2O3,2.4549000000000003
Bi2O3,1.9197000000000006
Bi2O3,1.6582000000000003
Bi2O3,2.1944999999999997
Bi2O3,1.6863000000000001
Bi2O3,2.2769999999999997
Bi2O3,0.8820999999999994
Bi2O3,0.9627999999999997
Bi2O3,1.3046000000000006
Bi2O3,1.7345000000000006
Bi2O5,0.0
Bi2OF4,3.7885
Bi2Os2O7,0.0
Bi2P2O9,0.0
Bi2P3(PbO4)3,0.0
Bi2P4O13,4.5172
Bi2PO6,0.0
Bi2Pb2S5,0.6956999999999995
Bi2Pb2Se5,0.4120999999999997
Bi2Pb3F12,4.4481
Bi2PbF8,3.6843
Bi2PbS4,1.0796999999999999
Bi2PbSe4,0.4549000000000003
Bi2Pd,0.0
Bi2Pd(SeO3)4,1.7711000000000001
Bi2Pd3PtO8,0.0
Bi2Pd3S2,0.0
Bi2Pd3Se2,0.0
Bi2Pd5,0.0
Bi2PdO4,0.49819999999999975
Bi2PdO4,0.0
Bi2PdPt,0.0
Bi2Pt,0.0
Bi2Pt2O7,0.7805
Bi2Pt3Se2,0.0
Bi2Rh,0.0
Bi2Rh2O7,0.0
Bi2Rh3S2,0.0
Bi2Ru2O7,0.0
Bi2S,0.0
Bi2S2O,0.9401000000000002
Bi2S2O9,3.5416
Bi2S3,1.3617999999999997
Bi2SO2,0.8266
Bi2SO7,0.0
Bi2Sb2(TeSe)3,0.35219999999999985
Bi2Sb2Te3,0.0
Bi2Se,0.0
Bi2Se2Cl7,1.3983000000000003
Bi2Se2O,0.9630000000000001
Bi2Se2S,1.1700000000000004
Bi2Se3,0.5469000000000004
Bi2Se3,0.9577999999999998
Bi2Se3,0.3769
Bi2Se3O10,3.2263
Bi2Se4Cl7,1.0179
Bi2Se5Cl7,1.4358000000000002
Bi2SeO2,0.3686999999999996
Bi2SeO5,2.8422
Bi2SeO6,0.6426999999999996
Bi2SeO7,0.0
Bi2Te,0.0
Bi2Te2O,0.4676999999999998
Bi2Te2O7,2.505
Bi2Te2S,0.7519
Bi2Te2S,0.43679999999999986
Bi2Te2Se,0.5441999999999996
Bi2Te2SeO10,3.1462000000000003
Bi2Te2W3O16,3.0739
Bi2Te2WO10,2.8648
Bi2Te3,0.3388
Bi2Te4Cl7,1.333
Bi2Te4O11,2.7334000000000005
Bi2Te4Pb,0.17350000000000065
Bi2Te4Pb,0.4945000000000004
Bi2Te5Pb2,0.0
Bi2Te7Cl8,0.8311000000000002
Bi2Te7Cl8,0.7266000000000004
Bi2TeI,0.16820000000000057
Bi2TeIClO8,2.8167999999999997
Bi2TeO2,0.0
Bi2TeO5,2.4275
Bi2TeO6,1.2592999999999996
Bi2TeSe2,0.43769999999999953
Bi2TeSe2,0.9267000000000003
Bi2W2O9,1.9562000000000004
Bi2W2O9,2.0202999999999998
Bi2WO6,1.9089999999999998
Bi2WO6,1.6037
Bi2WO6,2.4007000000000005
Bi2WO8,0.4814999999999998
Bi2WO8,0.2380000000000002
Bi2XeF12,1.7791999999999994
Bi3(AsO5)2,0.0
Bi3(B3O7)2,0.018299999999999983
Bi3(PO5)2,0.0
Bi3(PO5)2,0.016899999999999693
Bi3(TeCl5)2,1.2582
Bi3(TeCl5)2,1.1743000000000001
Bi32P10Pb3O76,2.2872000000000003
Bi34Ir3Br37,0.0040999999999997705
Bi3Au,0.0
Bi3B5O12,3.283
Bi3B7O12,0.4014999999999995
Bi3BO6,2.1160000000000005
Bi3BrO4,2.3158
Bi3BrO4,0.9257999999999997
Bi3C3N7,1.9464000000000001
Bi3ClO4,2.3069999999999995
Bi3IO4,2.3630999999999998
Bi3Ir3O11,0.0
Bi3IrO2,0.0
Bi3NF6,2.771
Bi3O2,0.0
Bi3O2F5,3.2849999999999997
Bi3O2F5,3.4435
Bi3O4F,2.3098
Bi3O4F,1.8834000000000004
Bi3O4F,2.1424999999999996
Bi3O4F,1.7972000000000001
Bi3O4F,2.0613
Bi3O5,0.0
Bi3O7,0.0
Bi3P3O13,0.0
Bi3PO7,2.3820000000000006
Bi3Pb,0.0
Bi3PbWClO8,0.7507000000000001
Bi3PbWClO8,1.0783999999999994
Bi3Pd12Pb,0.0
Bi3Pd5,0.0
Bi3Pd8,0.0
Bi3Pt2Pb,0.0
Bi3Pt3O11,0.0
Bi3Rh,0.0
Bi3Ru3O11,0.0
Bi3Sb,0.0
Bi3Sb(WO6)2,1.4041999999999994
Bi3Sb5Pb4O21,1.3765999999999998
Bi3SbO7,2.1685999999999996
Bi3SbPt2,0.0
Bi3Se4,0.0
Bi3Se4Br,1.0710000000000002
Bi3Te2S,0.0
Bi3Te4(ClO2)5,2.4347000000000003
Bi3Te5Pb,0.0
Bi4(B2O5)3,3.2042
Bi4(BO4)3,0.0
Bi4(SeS)3,1.2610999999999994
Bi4(TeS)3,0.5475999999999992
Bi4(TeSe)3,0.39250000000000007
Bi4(TeSe)3,0.3995999999999995
Bi4Au2O9,0.7795000000000005
Bi4B2O9,2.8354
Bi4BPO10,2.8219000000000003
Bi4Br2O5,2.5121
Bi4Cl2O5,2.2542000000000004
Bi4I,0.0
Bi4I2O5,2.2374
Bi4I3Br,0.8248000000000002
Bi4IBr3,0.6887000000000003
Bi4Ir,0.0
Bi4O3F7,0.15600000000000014
Bi4O5,0.35470000000000024
Bi4O5,0.5580000000000007
Bi4O5F2,2.872
Bi4O5F2,2.4866
Bi4O5F2,2.5409999999999995
Bi4O7,0.0
Bi4O7,0.9108
Bi4PPd15,0.0
Bi4Pb(ClO3)2,0.0
Bi4Pb7Se13,0.5369000000000002
Bi4PbS7,1.1239
Bi4Rh,0.0
Bi4RuBr2,0.5357000000000003
Bi4RuI2,0.1924999999999999
Bi4S3N2,0.9206000000000003
Bi4S3N2,0.8216999999999999
Bi4S3N2,0.5132999999999992
Bi4Se3,0.0
Bi4Se3N2,0.44810000000000016
Bi4Te2Br2O9,1.8311000000000002
Bi4Te2Br2O9,0.8599999999999994
Bi4Te3,0.0
Bi4Te3N2,0.37729999999999997
Bi4Te7Pb,0.42210000000000036
Bi5(PO4)6,0.0
Bi5(PO5)3,3.1558999999999995
Bi5(S2Cl)3,1.4513000000000007
Bi5(TeO6)3,0.24359999999999982
Bi5BO10,0.01890000000000036
Bi5BrO7,2.808
Bi5IO7,2.4304
Bi5IO7,2.7325000000000004
Bi5NO10,2.6161
Bi5O4F7,3.0184
Bi5O7F,2.6127000000000002
Bi5O7F,2.6088999999999998
Bi5O7F,2.5465999999999998
Bi5O7F,2.4939000000000004
Bi6As4PbO20,2.9694000000000003
Bi6As9Se4S10(O4F13)5,2.0126
Bi6B10O21,1.1879999999999997
Bi6Br7,1.4121000000000001
Bi6Cl3O7F,2.8698000000000006
Bi6Cl7,1.6159999999999997
Bi6Mo2O15,2.6683000000000003
Bi6O5F8,2.7798000000000003
Bi6O5F8,2.9616000000000002
Bi6P2O15,0.0
Bi6P4PbO20,3.3331999999999997
Bi6PtBr10,1.3531
Bi6PtCl10,1.4961
Bi6Rh12O29,0.014100000000000001
Bi6Se3(BrO7)2,3.1938
Bi6Te10Pb,0.3204999999999991
Bi6W4O21,2.1923
Bi7(O2F3)3,2.9241000000000006
Bi7(O2F3)3,2.6676999999999995
Bi7(S3Cl)3,0.9489000000000001
Bi7I2,0.0
Bi7Mo2(AsO8)3,2.4014
Bi7O5F11,3.9069
Bi7RhBr8,0.7892999999999999
Bi8(MoO7)3,2.5347
Bi8AsAuCl9,1.3173999999999997
Bi8Pt5I3,0.0
Bi8Rh8O27,0.0
Bi8SbAuBr9,1.1643000000000003
Bi8Se7,0.0
Bi8Se9,0.002500000000000391
Bi8Te7,0.09450000000000003
Bi8Te9,0.08150000000000013
Bi9AuBr9,1.0134000000000003
Bi9I2,0.0
Bi9Ir2I3,0.5560999999999998
Bi9Rh2Br3,0.5703000000000005
Bi9Rh2I3,0.4936999999999996
BiAs2O7,0.02679999999999999
BiAsO4,3.1697
BiAsO4,2.8719
BiAsPbO5,2.2678
BiAsPd6,0.0
BiAu2,0.0
BiAuBr6,1.1255
BiAuCl6,1.6272
BiAuO2,1.0829
BiB2O4F,4.1919
BiB2O5,0.0
BiB4(HO3)3,4.2330000000000005
BiBO3,3.0096
BiBOF4,3.2024999999999997
BiBPbO4,2.8053000000000003
BiBPbO4,2.8773
BiBPbS4,2.0872
BiBr,0.7863999999999998
BiBr3,2.8833
BiBr3,2.8692
BiBr3,2.5189000000000004
BiBr3,2.8714
BiBrO,2.2251
BiCO3,1.4110999999999998
BiCl3,3.3934
BiClF8,2.1058999999999997
BiClO,2.5681000000000003
BiF3,4.6808
BiF3,5.074400000000001
BiF4,0.6554
BiF5,0.4034
BiF5,1.8671
BiF5,0.0
BiF5,1.7609000000000001
BiF5,1.8137999999999999
BiH(SeO3)2,3.6590000000000003
BiH14C4N8Cl5O2,3.5429
BiH14C4S8N5O,2.8482000000000003
BiH16C4N2Cl5,3.9768
BiH18C3S3(O2F)9,0.00010000000000021103
BiH24C6(I2N)3,2.7822999999999998
BiH3Ru3(CO)9,2.2639
BiH6C3(S2N)3,2.5591
BiI,0.927
BiI,0.8279000000000001
BiI3,2.2293000000000003
BiI3,2.297
BiI3,2.7889
BiI3,2.5349
BiI3,2.4854
BiI4,0.46820000000000006
BiI5,0.06819999999999982
BiIO,1.4729999999999999
BiIO4,2.3939999999999992
BiIrS,0.6889999999999992
BiIrSe,0.5346000000000002
BiKrF7,2.2415000000000003
BiMo30(PbS10)4,0.0
BiMoO5,0.0
BiN3O14,0.8315999999999999
BiO2,0.6223
BiO2,0.0
BiO2,0.3186
BiO2,0.5188999999999999
BiO2,0.030100000000000016
BiO2,0.3538999999999999
BiO2,0.8823000000000001
BiO2,1.1596000000000002
BiOF,2.3766000000000003
BiOF,2.6762
BiOF,3.1303
BiOF,3.3087999999999997
BiOF,3.3537999999999997
BiOF,3.0513999999999997
BiOF,2.6413
BiOF,2.8878000000000004
BiOF,2.4354000000000005
BiOF,3.1626999999999996
BiOF,2.5742000000000003
BiOF,2.9045999999999994
BiOF,2.9652000000000003
BiOF,3.2116999999999996
BiOF,2.2789
BiOF,3.2552000000000003
BiOF3,1.4727
BiP(PbO2)4,2.5522
BiP2O7,0.31789999999999996
BiP2O7,0.0
BiP2O7,0.02429999999999999
BiP3(PbO4)3,3.6994
BiP3NO10,0.2721
BiP3Pb4O13,3.2834
BiP4HO12,4.9887
BiP5O14,5.0993
BiPO4,3.0004
BiPO4,3.7758000000000003
BiPO4,4.0348
BiPO4,3.6893
BiPO4,4.1861
BiPO5,0.0
BiPPb2,0.0
BiPPbO5,3.3519000000000005
BiPS4,1.4838999999999998
BiPb,0.0
BiPb2F7,2.5946000000000002
BiPb3Au,0.0
BiPb4,0.0
BiPbBrO2,1.5539000000000005
BiPbClO2,2.0736999999999997
BiPbF5,4.297000000000001
BiPbIO2,1.7164000000000001
BiPbO2F,2.1578
BiPd,0.0
BiPd2Au,0.0
BiPd2Pb,0.0
BiPd3,0.0
BiPd6Pb,0.0
BiPd6Se,0.0
BiPdSe,0.0
BiPt,0.0
BiPt2Pb,0.0
BiPt3,0.0
BiPtPb3,0.0
BiPtSe,0.0
BiRh,0.0
BiRh7Pb2O15,0.0
BiRhO3,0.41030000000000033
BiRhS,0.3403999999999998
BiRhSe,0.23799999999999955
BiRu2O7,0.0
BiS2,1.0665999999999993
BiS4N3Cl4,2.0317
BiSBr,2.032
BiSCl,1.9636000000000005
BiSI,1.8668999999999998
BiSb,0.11010000000000009
BiSb3(PO4)6,2.2741
BiSb3F20,2.1691
BiSb8Pb6AuS20,0.12729999999999997
BiSbO3,2.1066000000000003
BiSbO4,2.4246
BiSbPd2,0.0
BiSbPt,0.0
BiSbPt2,0.0
BiSbS3,1.3483999999999998
BiSbSe3,1.0106000000000002
BiSbTe2,0.47969999999999935
BiSbTe3,0.21329999999999938
BiSbWO6,1.2310999999999996
BiSe,0.0
BiSe2,0.6721000000000004
BiSeBr,1.6912
BiSeCl,1.8404000000000003
BiSeClO3,3.6197
BiSeClO3,3.5271999999999997
BiSeI,1.5764000000000005
BiTe,0.0
BiTe2Pb2AuS3,0.0
BiTe3,0.0
BiTeBr,1.2364000000000002
BiTeCl,1.5135
BiTeI,1.2325
BiTeIO3,2.3576
BiTeIO3,0.0
BiTeIr,0.4748000000000001
BiTeNO6,2.8005
BiTeO4,2.2018999999999993
BiTeO4,2.2615000000000007
BiTePd,0.0
BiTePt,0.0
BiTeRh,0.1620000000000008
BiW2(Br4O)2,1.8201
BiW2(Cl4O)2,1.6948
BiWO4,1.3733000000000004
BiXeF7,2.1799000000000004
BiXeF9,1.9598000000000002
Br,0.0
Br,1.4606
Br2Cl3,0.0
Br2O,1.3935000000000002
Br3N(O2F5)2,1.4972
BrCl,1.8129
BrCl,1.8319999999999999
BrCl,1.3235000000000001
BrClO,1.1661
BrF3,2.211
BrF5,3.4507
BrN(OF2)2,2.3401
BrNO,1.3157999999999999
BrNO,1.1344
BrNO3,2.208
BrO2F,2.6322
BrO4,0.7772999999999999
C,0.00010000000000021103
C,0.0
C,0.0945999999999998
C,0.10210000000000008
C,0.24409999999999998
C,3.3394999999999992
C,0.014800000000000035
C,0.10560000000000014
C,4.5686
C,4.3842
C,4.5214
C,4.399799999999999
C,4.3668
C,4.1145
C,0.012399999999999967
C,9.999999999998899e-05
C(ClF)2,5.7111
C(ClF)2,5.6634
C(Se2Br)2,1.4970999999999999
C10S(Cl4O)3,3.3273
C13Cl12,2.4659999999999997
C20Cl18O,1.3525
C2O3F2,5.2829
C2S(NCl)3,3.1683000000000003
C2S3I,1.6642000000000001
C2S7Cl6,2.9242
C2S9N2,2.5682
C2SNCl2F5,3.1605
C2SNOF,3.8048
C2Se3N2,1.9919000000000002
C3ICl(OF3)2,2.9994
C3N4,0.8366
C3N4,1.1340000000000001
C3N4,1.4341
C3N4,1.4129999999999998
C3N4,1.9701000000000004
C3N4,1.1814999999999998
C3S2(OF2)2,3.6381
C3S2(OF2)2,3.5712
C3S2ClO2F3,3.4821
C3S7O,1.9924000000000002
C3S8,1.7443
C4Cl5,2.4157
C4NCl2,2.7265
C4NCl2,2.9168000000000003
C4NCl2,3.0004
C4NCl3,2.1618
C4O5F6,5.3178
C4SBr4,2.7805
C4SBr4,2.6761
C5Cl4,2.2709
C6N7Cl3,2.7037
C7Cl5,2.0721999999999996
C7Cl8,3.0458
C8Cl3F2,2.1547
C8Cl4O3,2.4919000000000002
C8Cl5,2.0397
CBr3F,3.3196000000000003
CBr4,2.9265
CBrF2,4.5314
CCl,2.1141
CCl2,3.9193000000000002
CCl2O,4.5857
CCl3,4.7139
CCl3,1.9836999999999998
CCl3F,4.8988
CCl4,4.5297
CClF3,6.616
CF4,9.3354
CI4,1.1181
CIClF4,2.4801
CIF3,3.725
CIF7,4.6791
CNCl,3.7938
CO2,6.5856
CO2,6.4314
CO2,6.4419
CO2,6.496700000000001
CO2,6.6332
CO2,6.676
CO2,6.3098
CO2,6.453099999999999
CS14,2.5569
CS3(Br2N)2,1.2881
CS3N,2.6694999999999998
CSCl(OF)3,4.6094
CSCl2,2.9570000000000003
CSNCl2F5,4.0393
CSO,4.9077
CSO,4.4961
CSe(ClF)3,2.8954
Ca,0.0
Ca(AgGe)2,0.0
Ca(AgO2)2,0.026100000000000012
Ca(AgO2)2,0.6968
Ca(AgO2)2,0.9283000000000001
Ca(AgO2)2,0.7873
Ca(AgO2)2,0.0
Ca(AgO2)2,0.6817
Ca(Al10Cr)2,0.0
Ca(Al2Cu)4,0.0
Ca(Al2Fe)4,0.0
Ca(Al4Co)2,0.0
Ca(Al4Ni)2,0.0
Ca(Al5Cr)2,0.0
Ca(AlCl4)2,5.4214
Ca(AlGa)2,0.0
Ca(AlGe)2,0.0
Ca(AlH4)2,4.7209
Ca(AlH4)2,2.8314000000000004
Ca(AlH4)2,3.2932
Ca(AlH4)2,4.7401
Ca(AlS2)2,3.4146
Ca(AlSb)2,0.0
Ca(AlSe2)2,2.8458
Ca(AlSi)2,0.0
Ca(AlSn)2,0.0
Ca(AlZn)2,0.0
Ca(As2Rh3)2,0.0
Ca(AsO3)2,3.3115
Ca(AsPd)2,0.0
Ca(AsRu)2,0.0
Ca(AuF6)2,1.5298999999999998
Ca(AuO2)2,1.6618000000000004
Ca(B2Pt3)2,0.0
Ca(B3O5)2,5.8213
Ca(BC)2,0.4750999999999994
Ca(BC)2,0.0
Ca(BC3)2,0.6533999999999995
Ca(BH)12,4.8911
Ca(BH4)2,5.0844000000000005
Ca(BH4)2,5.4451
Ca(BH4)2,4.9736
Ca(BH4)2,5.093
Ca(BH4)2,5.0542
Ca(BH4)2,4.9997
Ca(BH4)2,5.3083
Ca(BH4)2,5.6009
Ca(BH4)2,5.4940999999999995
Ca(BH4)2,5.0954
Ca(BIr)2,0.0
Ca(BO2)2,6.0656
Ca(BO2)2,5.1974
Ca(BO2)2,5.456799999999999
Ca(BO2)2,6.020300000000001
Ca(BO2)3,0.4062000000000001
Ca(BO2)3,0.5526
Ca(BRh)2,0.0
Ca(BS2)2,3.0095
Ca(BeAs)2,0.6613999999999995
Ca(BeGe)2,0.0
Ca(BeN)2,2.0774000000000004
Ca(BeP)2,0.7359
Ca(Bi2O3)2,0.2779999999999996
Ca(BiAu3)2,0.0
Ca(BiO2)2,1.2355
Ca(BiO2)2,1.7862999999999998
Ca(BiO2)2,1.0016999999999996
Ca(BiO2)2,1.7897999999999996
Ca(BiO2)2,1.6532999999999998
Ca(BiO2)2,1.593
Ca(BiO2)2,1.6578999999999997
Ca(BiO2)2,1.7875999999999999
Ca(BiO2)2,1.1443000000000003
Ca(BiO2)2,1.7245
Ca(BiO2)2,1.5892
Ca(BiO2)2,1.8102
Ca(BiO2)2,2.4507
Ca(BiO2)4,0.26629999999999976
Ca(BiO2)4,0.5339999999999998
Ca(BiO3)2,0.45009999999999994
Ca(C2N3)2,4.2353
Ca(CO2)2,3.1204
Ca(CdAs)2,0.2163999999999997
Ca(CdAu2)2,0.0
Ca(CdP)2,0.8195999999999999
Ca(CdSb)2,0.10200000000000031
Ca(Ce2Se3)4,0.0
Ca(CeS2)2,0.0
Ca(CeTe2)2,0.0
Ca(ClO2)2,2.5997
Ca(ClO3)2,5.0397
Ca(ClO3)2,4.6343
Ca(ClO3)2,4.3815
Ca(Co2O3)2,0.26449999999999996
Ca(CoAs)2,0.0
Ca(CoGe)2,0.0
Ca(CoO2)2,0.0
Ca(CoO2)2,0.3952
Ca(CoO2)2,0.2939999999999996
Ca(CoO2)2,1.0792000000000002
Ca(CoO2)2,0.5097
Ca(CoO2)2,1.954
Ca(CoO2)2,0.9112
Ca(CoO2)2,1.0030000000000006
Ca(CoO2)2,2.2920000000000003
Ca(CoO2)2,1.4180000000000001
Ca(CoO2)2,1.6139000000000001
Ca(CoO2)4,0.0
Ca(CoP)2,0.0
Ca(CoS2)4,0.0
Ca(CoSi)2,0.0
Ca(CrN2)2,0.0
Ca(CrS2)2,0.3849999999999998
Ca(CrS2)2,1.3682000000000003
Ca(CrS2)2,1.3860999999999994
Ca(CrS2)4,0.0
Ca(Cu2As)2,0.0
Ca(Cu2O3)2,0.0
Ca(Cu2P)2,0.0
Ca(Cu3O4)2,0.0
Ca(CuAs)2,0.0
Ca(CuGe)2,0.0
Ca(CuO)2,1.2435
Ca(CuO2)2,0.0
Ca(CuO2)2,0.5792999999999999
Ca(CuO2)2,0.6713
Ca(CuO2)2,0.5114000000000001
Ca(CuO2)2,0.1045999999999998
Ca(CuP)2,0.0
Ca(CuSi)2,0.0
Ca(CuSn)2,0.0
Ca(DyS2)2,2.1664000000000003
Ca(DyTe2)2,0.5862999999999996
Ca(Er2B15)2,0.0
Ca(ErS2)2,1.5692000000000004
Ca(ErS2)2,1.4382999999999995
Ca(ErTe2)2,0.617
Ca(Fe2O3)2,0.0
Ca(Fe2O3)4,1.1096000000000004
Ca(Fe9O13)2,0.9447000000000001
Ca(FeAs)2,0.0
Ca(FeO2)2,1.6264999999999996
Ca(FeO2)2,1.3556
Ca(FeO2)2,1.7351
Ca(FeO2)2,1.0006000000000004
Ca(FeO2)2,0.0
Ca(FeO2)2,1.6461000000000001
Ca(FeO2)2,2.081
Ca(FeO2)2,1.5783999999999998
Ca(FeO2)2,1.6800000000000002
Ca(FeO2)2,1.7361000000000004
Ca(FeO2)2,1.4754
Ca(FeO2)4,0.6617000000000002
Ca(FeO2)4,0.0
Ca(FeP)2,0.0
Ca(FeS2)4,0.0
Ca(FeSb3)4,0.0
Ca(FeSi)2,0.0
Ca(Ga3Te5)2,0.8979000000000004
Ca(GaAs)2,0.03530000000000033
Ca(GaO2)2,2.9772
Ca(GaO2)2,2.9856
Ca(GaO2)2,3.1337
Ca(GaP)2,0.1778000000000004
Ca(GaS2)2,2.6276
Ca(GaS2)2,2.3711
Ca(GaS2)2,2.7470999999999997
Ca(GaSe2)2,1.9773
Ca(GdS2)2,1.4034
Ca(GeAu)2,0.0
Ca(GeIr)2,0.0
Ca(GePd)2,0.0
Ca(GePt)2,0.0
Ca(GeRh)2,0.0
Ca(GeRu)2,0.0
Ca(H2N)2,2.6985
Ca(H8O5)2,4.0013000000000005
Ca(H8O5)2,3.8199
Ca(H8O5)2,3.2181
Ca(H8O5)2,3.5136999999999996
Ca(H8O5)2,3.8933
Ca(H8O5)2,3.9044
Ca(H8O5)2,3.8400999999999996
Ca(H8O5)2,3.6908000000000003
Ca(H8O5)2,3.8912999999999998
Ca(H8O5)2,3.3815
Ca(H8O5)2,3.3662
Ca(H8O5)2,3.4675000000000002
Ca(H8O5)2,3.8139
Ca(H8O5)2,3.3637
Ca(H8O5)2,3.7409
Ca(H8O5)2,3.5782999999999996
Ca(H8O5)2,3.7376
Ca(HO)2,4.1119
Ca(HO)2,3.7951
Ca(HO)2,4.2186
Ca(HO)2,4.284999999999999