formula,band_gap
BaSr(SnO3)2,0.7130999999999998
BaSr(WO3)4,0.0
BaSr11Al4(O4F)4,4.0628
BaSr2(PN2)6,4.1542
BaSr2(PO4)2,5.335100000000001
BaSr2(SnO3)3,1.4113000000000002
BaSr2Ca,0.0
BaSr2Eu,0.0
BaSr2I6,3.6669
BaSr2I6,3.3694000000000006
BaSr2I6,3.883
BaSr2I6,3.8301
BaSr2I6,3.2551999999999994
BaSr2I6,3.9768
BaSr2I6,3.7640000000000002
BaSr2I6,3.6766999999999994
BaSr2I6,3.6180999999999996
BaSr2I6,3.2767
BaSr2I6,3.3879
BaSr2I6,3.9536
BaSr2In2O6,1.0725000000000002
BaSr2In6O12,1.8143000000000002
BaSr2Mg(SiO4)2,4.759
BaSr2Mn2(Si2O7)2,0.0
BaSr2N2,0.0
BaSr2ScInO6,1.6908999999999996
BaSr2Tm6O12,2.6054999999999997
BaSr2UO6,2.2417
BaSr2Y2Cu2PtO10,0.5624000000000002
BaSr2Y6O12,2.6259
BaSr3,0.0
BaSr3(CoO3)4,0.043700000000000294
BaSr3(CoO3)4,0.9630999999999998
BaSr3(SnO3)4,1.2843999999999998
BaSr3(ZrSe3)4,0.22739999999999982
BaSr3Ag4,0.0
BaSr3Ca2(MoO6)2,2.3031
BaSr3Co2(CuO5)2,0.0
BaSr3Co2(CuO6)2,0.0
BaSr3Co2Cu4(SO)4,0.0
BaSr3Cu8(BO3)8,0.0
BaSr3I8,3.1392
BaSr3Lu2(BiO6)2,1.8293999999999997
BaSr3Mn3O10,1.3553000000000002
BaSr3Mn4O12,0.8782000000000001
BaSr3O4,2.5199
BaSr3Pd2(OF)4,0.0
BaSr3Ti4O12,1.7434000000000003
BaSr3Zr2Ti2O12,2.2119999999999997
BaSr3Zr4O12,3.4848000000000003
BaSr4,0.0
BaSr4(FeO2)5,0.005799999999999805
BaSr4(FeO2)5,0.0
BaSr4(FeO3)5,0.0
BaSr4Cl10,5.1682
BaSr4Cl10,5.342899999999999
BaSr4Ti5O15,1.8047999999999997
BaSr4U3O14,2.0759000000000003
BaSr6Fe3Bi3O16,0.0
BaSr7(Fe2O5)4,0.7341000000000002
BaSr7(FeO3)8,0.0
BaSr7Co4(CuO5)4,0.0
BaSr7Co4(CuO6)4,0.0
BaSr7Co5(CuO8)3,0.0
BaSr7Co6(CuO12)2,0.0
BaSr7Fe6(CoO10)2,0.0
BaSr7Fe6(CoO12)2,0.0
BaSr7Fe7CoO24,0.0
BaSr7Mn2(Fe3O10)2,0.0
BaSr7Mn2(FeO4)6,0.0
BaSr7MnFe7O20,0.0
BaSr7MnFe7O24,0.0
BaSr7Ti5Mn3O20,0.0
BaSr7Ti5Mn3O24,0.0
BaSr7Ti6Mn2O20,0.0
BaSr7Ti6Mn2O24,0.6989999999999998
BaSr7Ti7MnO20,0.0
BaSr7Ti7MnO24,0.9921999999999995
BaSr7Ti8O20,0.0
BaSr7Ti8O24,1.7462
BaSr7V8(Si2O7)8,2.8387999999999995
BaSrAl20(CuO17)2,0.0
BaSrBi3,0.0
BaSrBiSbO6,1.9536999999999995
BaSrBiSbO6,1.7818999999999994
BaSrBiSbO6,1.6669
BaSrBiSbO6,1.8227000000000002
BaSrCa2Tl(CuO3)3,0.0
BaSrCaCrO6,0.5585
BaSrCaFeO6,0.0
BaSrCaMg(SiO4)2,4.7476
BaSrCaMnO6,0.0
BaSrCaMoO6,2.2592000000000003
BaSrCaSeO6,2.4917
BaSrCaSeO6,2.1937
BaSrCaWO6,3.4049999999999994
BaSrCaWO6,3.3685
BaSrCaWO6,3.2742999999999993
BaSrCaWO6,3.3675000000000006
BaSrCaWO6,3.4024
BaSrCaWO6,3.2474
BaSrCaWO6,3.1999000000000004
BaSrCe2O6,2.1796999999999995
BaSrCe2O6,2.2855999999999996
BaSrCe2O6,2.2035
BaSrCeBiO6,0.0
BaSrCeBiO6,0.10740000000000016
BaSrCeCrO6,0.0
BaSrCeFeO6,0.0
BaSrCeHfO6,2.3501000000000003
BaSrCeHfO6,2.127
BaSrCeHfO6,2.1941000000000006
BaSrCeNbO6,0.0
BaSrCeNiO6,1.1907999999999999
BaSrCeSbO6,0.11070000000000046
BaSrCeSbO6,0.0
BaSrCeSnO6,2.2351
BaSrCeSnO6,2.1779999999999995
BaSrCeTiO6,2.0698000000000003
BaSrCeTiO6,2.1393000000000004
BaSrCeTiO6,2.1429
BaSrCeVO6,0.0
BaSrCeVO6,1.2290000000000005
BaSrCeWO6,0.6247999999999996
BaSrCeWO6,0.5175000000000001
BaSrCeWO6,0.0
BaSrCeZrO6,2.2538000000000005
BaSrCeZrO6,2.2322
BaSrCeZrO6,2.4032999999999998
BaSrCoCu2(SO)2,0.0
BaSrCoWO6,0.0
BaSrCrBiO6,0.14200000000000035
BaSrCrSnO6,0.0
BaSrCuBiO6,0.0
BaSrDy4O8,3.6976
BaSrDyBiO6,1.8030000000000004
BaSrDyBiO6,1.8559999999999999
BaSrDyMnO6,0.0
BaSrDyNbO6,2.9791999999999996
BaSrDyNbO6,2.8762999999999996
BaSrDyNbO6,3.0423
BaSrDySbO6,3.4846999999999997
BaSrDySbO6,3.5496999999999996
BaSrDySbO6,3.4710000000000005
BaSrDySeO6,0.0
BaSrDyVO6,1.6306999999999996
BaSrDyWO6,2.0345
BaSrDyWO6,1.8685999999999998
BaSrDyWO6,0.0
BaSrEr4O8,3.7462
BaSrErCu3O7,0.0
BaSrEu2,0.0
BaSrEuBiO6,0.0
BaSrEuCu3O7,0.0
BaSrEuNbO6,0.0
BaSrEuSbO6,0.0
BaSrEuWO6,0.0041999999999999815
BaSrEuWO6,0.04890000000000061
BaSrEuWO6,0.010399999999999743
BaSrEuWO6,0.08389999999999986
BaSrEuWO6,0.24220000000000041
BaSrEuWO6,0.25150000000000006
BaSrEuWO6,0.8266999999999998
BaSrFeBiO6,0.08370000000000033
BaSrGa4,0.0
BaSrGaBiO6,0.0
BaSrGd4O8,3.0431000000000004
BaSrGdBiO6,1.6166
BaSrGdBiO6,1.4773
BaSrGdBiO6,1.6993
BaSrGdCrO6,0.0
BaSrGdNbO6,2.7823
BaSrGdNbO6,2.801
BaSrGdNbO6,2.6155000000000004
BaSrGdSbO6,3.4364
BaSrGdVO6,1.5448
BaSrHf2O6,3.7481999999999998
BaSrHf4O12,0.0
BaSrHfNbO6,0.0
BaSrHfSnO6,3.7375
BaSrHfZrO6,3.3278
BaSrHfZrO6,3.5330000000000004
BaSrHg2,0.0
BaSrHo4O8,3.7376
BaSrI4,3.7403
BaSrI4,3.3328999999999995
BaSrI4,3.2021999999999995
BaSrI4,3.5473999999999997
BaSrI4,3.7429
BaSrI4,3.6088999999999998
BaSrI4,3.1007
BaSrI4,3.2012
BaSrI4,3.6361999999999997
BaSrI4,3.3499000000000003
BaSrI4,2.6353
BaSrI4,3.2802000000000002
BaSrI4,3.4665
BaSrI4,3.3457
BaSrI4,3.6125999999999996
BaSrI4,3.1709999999999994
BaSrI4,3.4669999999999996
BaSrInBiO6,0.0
BaSrInBiO6,0.41869999999999985
BaSrInSbO6,0.7664000000000004
BaSrInWO6,0.0
BaSrLa4Be2O10,3.538100000000001
BaSrLa4O8,3.2168
BaSrLaBiO6,2.1236
BaSrLaBiO6,1.9177
BaSrLaBiO6,1.8834999999999997
BaSrLaBiO6,1.9480000000000004
BaSrLaBiO6,1.9043999999999999
BaSrLaBiO6,1.8135999999999997
BaSrLaBiO6,1.8846000000000003
BaSrLaNbO6,2.9712
BaSrLaNbO6,3.0144
BaSrLaSbO6,3.6302
BaSrLaSbO6,3.6013
BaSrLaSbO6,3.6883999999999997
BaSrLaVO6,1.7237999999999998
BaSrLaVO6,1.7227000000000001
BaSrLaVO6,1.8488000000000002
BaSrLaWO6,2.2542999999999997
BaSrLaWO6,0.0
BaSrLaWO6,2.0359999999999996
BaSrLiNdTlCu2O7,0.0
BaSrLuBiO6,1.7561999999999998
BaSrMg(FeO2)4,1.4692999999999998
BaSrMg14,0.0
BaSrMg30O32,1.8515000000000006
BaSrMg30O32,3.5639
BaSrMg6,0.0
BaSrMgSi2O7,4.522600000000001
BaSrMgTeO6,1.9918
BaSrMgWO6,3.2391
BaSrMn2Al9PbO20,1.233
BaSrMn2O6,0.7890999999999999
BaSrMnWO6,2.0186000000000006
BaSrN,0.0
BaSrNb4O12,1.336
BaSrNbBiO6,2.1204
BaSrNbBiO6,1.9496000000000002
BaSrNbInO6,3.3943
BaSrNbSbO6,1.2104999999999997
BaSrNbSbO6,2.1944999999999997
BaSrNbSbO6,1.1307
BaSrNbWO6,0.8734000000000002
BaSrNd4O8,3.4682000000000004
BaSrNdBiO6,1.7161
BaSrNdBiO6,1.7882000000000002
BaSrNdBiO6,2.0012999999999996
BaSrNdCrO6,0.0
BaSrNdCu3O7,0.0
BaSrNdFeO6,0.14369999999999994
BaSrNdFeO6,0.14690000000000003
BaSrNdMnO6,0.0
BaSrNdNbO6,2.8698000000000006
BaSrNdNbO6,3.0702999999999996
BaSrNdNbO6,2.9744
BaSrNdSbO6,3.5072
BaSrNdSbO6,3.5257
BaSrNdSbO6,3.6367000000000003
BaSrNdTlCu2O7,0.0
BaSrNdVO6,1.6403000000000003
BaSrNdVO6,1.6697000000000002
BaSrNdWO6,2.0977
BaSrNdWO6,0.0
BaSrNdWO6,1.8901
BaSrNiBiO6,0.0
BaSrNiWO6,3.3716000000000004
BaSrO2,2.5671999999999997
BaSrO2,2.2539
BaSrPb6,0.0
BaSrPd(OF)2,0.0
BaSrPdF6,1.4644
BaSrPrBiO6,2.0229
BaSrPrBiO6,1.7972000000000001
BaSrPrCoO6,0.1057999999999999
BaSrPrCoO6,0.0
BaSrPrCu3O7,0.0
BaSrPrHfO6,0.0
BaSrPrNbO6,3.0166999999999997
BaSrPrNbO6,2.9619999999999997
BaSrPrNbO6,2.8679
BaSrPrNiO6,0.0
BaSrPrSbO6,3.6275
BaSrPrSbO6,3.5434
BaSrPrSbO6,3.4907
BaSrPrSnO6,0.0
BaSrPrTiO6,0.0
BaSrPrVO6,1.6718000000000002
BaSrPrVO6,1.6564
BaSrPrVO6,1.8192
BaSrPrWO6,1.9162000000000003
BaSrPrWO6,2.1062999999999996
BaSrPrWO6,0.0
BaSrPrZrO6,0.0
BaSrSi4,0.0
BaSrSi4,0.6949000000000001
BaSrSi4(NO)4,3.5329000000000006
BaSrSm(CuO2)3,0.0
BaSrSm4O8,3.5735
BaSrSmBiO6,1.8037
BaSrSmBiO6,1.9686999999999997
BaSrSmCrO6,0.0
BaSrSmCu3O7,0.0
BaSrSmFeO6,0.11840000000000028
BaSrSmMnO6,0.0
BaSrSmNbO6,2.8688000000000002
BaSrSmNbO6,2.9737999999999998
BaSrSmSbO6,3.6073
BaSrSmSbO6,3.5046
BaSrSmSbO6,3.5020999999999995
BaSrSmSeO6,0.0
BaSrSmVO6,1.6407000000000003
BaSrSmWO6,1.7599000000000005
BaSrSmWO6,0.0
BaSrSmWO6,2.0033999999999996
BaSrTa2O7,2.1929
BaSrTbBiO6,1.9042
BaSrTbBiO6,1.8169
BaSrTbCeO6,0.0
BaSrTbCrO6,0.0
BaSrTbHfO6,0.0
BaSrTbNbO6,2.867
BaSrTbNbO6,2.9825999999999997
BaSrTbSbO6,3.4354
BaSrTbSbO6,3.501
BaSrTbSbO6,3.5885000000000002
BaSrTbSeO6,0.0
BaSrTbSnO6,0.0
BaSrTbTiO6,0.0
BaSrTbVO6,1.6178
BaSrTbWO6,0.0
BaSrTbWO6,2.038
BaSrTbWO6,1.7993999999999999
BaSrTbZrO6,0.0
BaSrTi2O6,1.7175000000000002
BaSrTi4O12,0.0
BaSrTiBiO6,0.0
BaSrTl2,0.0
BaSrTm4O8,3.7798000000000003
BaSrV4(CuO4)4,0.3759000000000001
BaSrV4(NiO4)4,2.9331999999999994
BaSrVBiO6,0.9855999999999998
BaSrY(CuO2)4,0.0
BaSrY4(CuO5)2,0.0
BaSrY4O8,3.7192999999999996
BaSrYBiO6,1.7909000000000002
BaSrYBiO6,1.9478
BaSrYCrO6,0.0
BaSrYCu3PbO7,0.0
BaSrYNbO6,2.9737999999999998
BaSrYNbO6,3.0516000000000005
BaSrYNbO6,2.8734
BaSrYSbO6,3.4776
BaSrYSbO6,3.5348
BaSrYTlCu2O7,0.0
BaSrYVO6,1.6099000000000006
BaSrYWO6,0.0
BaSrYWO6,2.0380999999999996
BaSrYWO6,1.8616999999999995
BaSrZnWO6,3.3966000000000003
BaSrZr2O6,3.123
BaSrZr2O6,3.1698000000000004
BaSrZrNbO6,0.0
BaSrZrSnO6,3.9199
BaTa2Bi2O9,1.9158
BaTa2O6,2.1161000000000003
BaTa4O11,3.4594000000000005
BaTa6O16,2.1822
BaTaF7,3.9804
BaTaF7,5.691
BaTaNO2,0.3398000000000003
BaTaO3,0.0
BaTaS3,0.0
BaTaSe3,0.0
BaTb2(MoO4)4,3.3313
BaTb2DyO6,0.0
BaTb2Mn2O7,0.0
BaTb2Mn2O7,0.6727999999999996
BaTb2NiO5,2.1026
BaTb2O4,3.2062000000000004
BaTb2PdO5,1.8352
BaTb2SmO6,0.0
BaTb2ZnO5,3.0505999999999998
BaTbAgS3,1.0016000000000003
BaTbAgTe3,0.7735000000000003
BaTbCuBO5,0.5544000000000002
BaTbCuTe3,0.5309999999999997
BaTbEuBiO6,0.0
BaTbEuSbO6,0.0
BaTbEuSbO6,0.009700000000000486
BaTbEuSbO6,0.4475000000000007
BaTbEuSnO6,0.0
BaTbEuVO6,0.03279999999999994
BaTbEuWO6,0.14679999999999982
BaTbEuWO6,0.0
BaTbF6,0.0
BaTbFe2O5,0.0
BaTbFe4O7,0.47840000000000016
BaTbInWO6,1.2902999999999993
BaTbInWO6,1.6481
BaTbMn2O5,0.04380000000000006
BaTbMn2O5,0.0
BaTbMn2O6,0.07330000000000014
BaTbMn2O6,0.0
BaTbNbSnO6,2.4127
BaTbNbSnO6,1.9559000000000002
BaTbNbSnO6,1.7967
BaTbO3,0.0
BaTcO3,0.0
BaTe,1.593
BaTe,0.7768999999999999
BaTe2,0.3512999999999993
BaTe2F10,4.8686
BaTe2Mo2(HO6)2,3.0286
BaTe2Mo2(HO6)2,3.0841000000000003
BaTe3,0.8198000000000008
BaTe3H15(CN)3,1.2529
BaTe3O7,3.1953000000000005
BaTe4O9,3.1536
BaTeF6,4.6357
BaTeMo2O9,3.0136000000000003
BaTeMo2O9,2.6494999999999997
BaTeO3,2.7149
BaTeO3,3.1676
BaTeO4,2.4101999999999997
BaTeO4,2.1894
BaTeS3,1.9088000000000003
BaTeW2O9,3.4154
BaTh(PO4)2,5.0577000000000005
BaTh2S5,1.7359999999999998
BaThBr6,2.1837999999999997
BaThF6,5.0771999999999995
BaThN2,0.4357999999999995
BaThO3,4.047
BaThO3,3.2033000000000005
BaThTe4,0.0
BaTi(AsO4)2,2.4211
BaTi(BO3)2,2.3876999999999997
BaTi(GeO3)3,2.9973
BaTi(IO3)6,2.7339
BaTi(PO4)2,2.5923999999999996
BaTi(S2O7)3,2.7332
BaTi(SiO3)3,3.0835
BaTi(SiO3)3,3.0661000000000005
BaTi10O20,0.0
BaTi14O28,0.0
BaTi18Mn3O38,0.0
BaTi2(P2O7)2,0.0
BaTi2As2O,0.0
BaTi2Bi2O,0.0
BaTi2Fe4O11,1.5525999999999995
BaTi2Fe4O11,1.6364
BaTi2O5,1.8301000000000003
BaTi2O5,2.2230000000000003
BaTi2O5,2.8033
BaTi2Sb2O,0.0
BaTi4Bi4O15,1.6025
BaTi4O9,2.7041999999999997
BaTi5O11,2.6235000000000004
BaTi6O11,0.0
BaTi6O12,0.0
BaTi6O13,2.6401000000000003
BaTi7O14,0.0
BaTi8O16,0.0
BaTiCu4P4O17,0.2743000000000002
BaTiF6,4.3236
BaTiFe2(SiO5)2,0.0
BaTiFe2(SiO5)2,1.0744000000000002
BaTiFe3(BiO4)3,2.0642999999999994
BaTiMn2(SiO5)2,0.0
BaTiMnBiO6,0.0
BaTiMnNbO6,0.0
BaTiNbGaO6,0.6275000000000004
BaTiO3,1.6662999999999997
BaTiO3,2.5086999999999997
BaTiO3,2.0811
BaTiO3,2.2929999999999997
BaTiO3,1.7260999999999997
BaTiO3,1.7279999999999998
BaTiOF4,3.3400000000000003
BaTiS3,0.0
BaTiSe3,0.0
BaTiZnF7,0.24429999999999996
BaTl(PO3)3,4.8597
BaTl2,0.0
BaTl2O4,0.2972999999999999
BaTl2O4,0.009199999999999875
BaTl2O4,0.0679000000000003
BaTl3,0.0
BaTl3Au,0.0
BaTl4,0.0
BaTlCuO4,0.0
BaTlHg2,0.0
BaTlIn3,0.0
BaTlO3,0.0
BaTlVO4,3.5439
BaTm2(MoO4)4,3.2386
Ba5Al5Pb,0.0
Ba5Al5Sn,0.0
Ba5AlIr2O11,0.0
Ba5AlRu2O11,0.07860000000000023
Ba5As2(SO6)2,2.4145
Ba5As3,0.0
Ba5As3ClO12,3.9959999999999996
Ba5As3SO12,0.0
Ba5B20(H2O19)2,0.10799999999999998
Ba5B3BrO9,3.8019
Ba5B3CNO9,3.3351
Ba5B3ClO9,3.7516000000000003
Ba5B4(O5F)2,4.5127
Ba5B4O11,3.7916999999999996
Ba5Bi3,0.0
Ba5Bi3O11,0.0
Ba5Bi5O13,0.0
Ba5BiPb4O15,0.0
Ba5Ca2Nb3O15,0.0
Ba5Ca2Ta3O15,0.0
Ba5Cd2(Sb2O)2,0.0
Ba5Cd2Sb5F,0.0692999999999997
Ba5Ce4YO15,0.0
Ba5Ce4ZrO15,2.1384000000000003
Ba5Ce4ZrO15,2.2572000000000005
Ba5Ce4ZrO15,1.8941999999999997
Ba5Co4PtClO13,0.0
Ba5Co5ClO13,0.0
Ba5Co5O13F,0.14949999999999997
Ba5Co5O14,0.0
Ba5Cr3ClO12,1.0844000000000003
Ba5Cr3F18,1.4566
Ba5Cr3O12F,1.0051
Ba5Cr3O13,0.6992999999999998
Ba5Cr5O14,0.6715999999999998
Ba5CrN5,0.1251000000000002
Ba5Cu4ClF17,0.15769999999999995
Ba5Dy8Zn4O21,3.3654
Ba5Er2ZrAl2O13,2.5861
Ba5Er8Ni4O21,2.4221000000000004
Ba5Er8Zn4O21,3.3617999999999997
Ba5Eu5(Fe5O13)2,0.03849999999999998
Ba5Eu8Zn4O21,0.0
Ba5Fe3W2O15,0.18079999999999963
Ba5Fe4S11,0.045700000000000074
Ba5Fe5O14,0.0
Ba5Ga5Pb,0.0
Ba5Ga5Sn,0.0
Ba5Ga6,0.0
Ba5Ga6,0.05069999999999997
Ba5GaRu2O11,0.06420000000000003
Ba5Gd2ZrAl2O13,2.4626
Ba5Gd8Zn4O21,2.7487999999999997
Ba5Ge3,0.0
Ba5Hf2N6,1.3443999999999998
Ba5Hf4S13,0.5503
Ba5Ho2ZrAl2O13,2.5553
Ba5Ho8Mn4O21,0.5823
Ba5Ho8Zn4O21,3.3644000000000003
Ba5In3F19,4.7376000000000005
Ba5In4Bi5,0.0
Ba5In4Te4S7,1.1328999999999998
Ba5In5O12,0.0
Ba5La2Cl16,4.0033
Ba5La3(GaO4)4,0.0
Ba5La3I19,2.2099
Ba5LaSi6,0.0
Ba5Li2(TeO5)3,1.2111999999999998
Ba5Li2(WO5)3,2.2925000000000004
Ba5Li2U3O15,1.2725
Ba5LiGaN3F5,1.3588000000000005
Ba5LiMo2N7Cl2,2.3448
Ba5Lu2ZrAl2O13,2.5528999999999997
Ba5Lu8Ni4O21,1.4777000000000005
Ba5Mg18Ge13,0.0
Ba5Mg18Si13,0.0
Ba5MgBi3O11,0.0
Ba5MgMnV4(Cl3O7)2,2.6163
Ba5Mn(Co2O7)2,0.5192999999999999
Ba5Mn3ClO12,1.7299
Ba5Mn3O12F,1.8859
Ba5Mn3O12F,1.8397000000000001
Ba5Mn5O14,0.7272999999999996
Ba5Na(GaSb3)2,0.0
Ba5Na2Ru3O14,0.14360000000000017
Ba5Na2Ru3O14,0.0
Ba5Nb2O10,2.3701
Ba5Nb2O11,2.4160999999999997
Ba5Nb3O3F20,0.7117
Ba5Nb4O15,2.5999
Ba5Nb5O14,0.0
Ba5NbIr4O15,0.0
Ba5Nd8Mn4O21,1.8889
Ba5Os3ClO15,0.6081000000000003
Ba5Os3NO18,0.6044999999999998
Ba5P3BrO12,4.963699999999999
Ba5P3ClO12,5.0449
Ba5P3O12F,5.0737000000000005
Ba5P3O12F,5.064
Ba5P3O13,0.20909999999999984
Ba5P3O13,0.5298
Ba5P4,0.9422000000000001
Ba5P4,0.9365000000000001
Ba5P5I3,0.0
Ba5P9,0.0
Ba5Pb3,0.0
Ba5Pt2O9,1.9294999999999995
Ba5Re3BrO15,2.54
Ba5Re3ClO15,2.5307
Ba5Re3IO15,1.9989
Ba5Re3NO18,2.3
Ba5Re3O16,0.5103
Ba5Ru2Br2O9,0.4718
Ba5Ru2Cl2O9,0.0
Ba5Ru2ClO9,0.0
Ba5Ru2O11,0.3404999999999996
Ba5Sb3,0.0
Ba5Sb4,0.2648999999999999
Ba5Sb4,0.4347000000000003
Ba5Sc6O14,3.6435000000000004
Ba5Si(Br3O2)2,4.2627999999999995
Ba5Si(Cl3O2)2,4.5485999999999995
Ba5Si3,0.0
Ba5Si8O21,4.5125
Ba5Sm8Mn4O21,0.5510999999999999
Ba5Sn3,0.0
Ba5Sr2Nd8(CuO5)5,0.0
Ba5SrLa2Fe4O15,2.4311999999999996
Ba5SrLa2Fe4O15,2.4153000000000002
Ba5SrNd2Fe4O15,2.4166
Ba5SrNd2Fe4O15,2.4045
Ba5Ta2Cl2O9,3.5216000000000003
Ba5Ta4O15,3.0865
Ba5Ti4MoO15,0.45779999999999976
Ba5Tm2ZrAl2O13,2.4930999999999996
Ba5Tm8Ni4O21,2.3991
Ba5Tm8Zn4O21,3.359
Ba5V3ClO12,4.0709
Ba5V3HO13,3.9795000000000003
Ba5V4(ClO7)2,3.2262
Ba5V5O14,1.3248999999999995
Ba5V5O14,0.0
Ba5V5O14,0.7356000000000003
Ba5Y2ZrAl2O13,2.6225000000000005
Ba5Y3Br19,3.4253
Ba5Y3F19,6.0969
Ba5Y3F19,6.5926
Ba5Y3F19,6.2526
Ba5Y3I19,2.6251
Ba5Y8Mn4O21,1.5582000000000003
Ba5Y8Zn4O21,3.4094999999999995
Ba5Zn2B4(O6F)2,3.6606000000000005
Ba5Zr2N6,1.3033
Ba6(BiSe2)13,0.0
Ba6(NiO3)5,0.0
Ba6Al2Rh4O15,0.0
Ba6Bi2(TeO6)3,2.0681000000000003
Ba6Bi6O17,0.0
Ba6Br2N3Cl,1.1639000000000004
Ba6Br2N3Cl,1.1198000000000001
Ba6Br2N3Cl,1.2138999999999998
Ba6Ca11I34,3.4093
Ba6Ca12Cu15Hg3O37,0.0
Ba6Ca15Cu18Hg3O43,0.0
Ba6Ca2Ir3RuO18,0.0
Ba6Ca2Ta(RuO6)3,0.0
Ba6Ca3Cu6Hg3O19,0.0
Ba6Ca6Cu9Hg3O25,0.0
Ba6Ca6Mg(CO3)13,4.5923
Ba6Ca6Tl5Cu9O29,0.0
Ba6CaEu2Cu6(HgO7)3,0.0
Ba6CaI14,3.0281000000000002
Ba6CaI14,3.0651
Ba6CaNb2Ir(ClO6)2,0.07869999999999999
Ba6CaNb2Ir(ClO6)2,0.0
Ba6CaNb2Ir(ClO6)2,0.6802999999999999
Ba6CaNb2Ir(ClO6)2,0.9260000000000002
Ba6CaNb2Ir(ClO6)2,0.021099999999999675
Ba6CdAg2(SnS4)4,1.7026999999999997
Ba6Co25S27,0.0
Ba6Co6O16F,0.0
Ba6Cu11F34,0.2531
Ba6Cu34S27,0.0
Ba6Cu3Hg3O13,0.0
Ba6Dy2Al4O15,3.928
Ba6Dy2Al4O15,1.9634
Ba6Dy2Ga4O15,3.5896000000000003
Ba6Er2Ga4O15,3.5263
Ba6Eu(ClF6)2,0.0
Ba6Fe14Cu11S27,0.017999999999999794
Ba6Fe25S27,0.0
Ba6Fe3Si8C2(ClO10)3,0.0
Ba6Fe8S15,0.0
Ba6Ga2Co11O26,0.0
Ba6Ga5N,0.0
Ba6Gd(ReO6)3,1.9388999999999998
Ba6Gd2Al4O15,3.4318999999999997
Ba6Gd2Fe4O15,2.1756
Ba6Gd2Ga4O15,3.3985999999999996
Ba6Ge25,0.08230000000000004
Ba6Ge2N7,0.0
Ba6Ge5N2,0.0
Ba6Hf5S16,0.5949
Ba6HfO8,2.4348
Ba6Ho2Al2Rh2O15,0.0
Ba6Ho2Ga4O15,3.5530999999999997
Ba6In2NF,0.0
Ba6In5N,0.0
Ba6La2Co4O15,1.4781999999999997
Ba6La2Fe4O15,2.3961999999999994
Ba6La2Ga4O15,3.4213999999999998
Ba6Li2Si4ClO15,0.0
Ba6Li2Ta9Ti7O42,0.0
Ba6Li2Ti16O39,2.1144
Ba6Li2Ti7(Sb3O14)3,0.0
Ba6Li2Ti7Nb9O42,0.0
Ba6LiNb2Ir(ClO6)2,1.5718
Ba6LiNb2Ir(ClO6)2,1.3188000000000004
Ba6LiNb2Ir(ClO6)2,1.5034
Ba6LiNb2Ir(ClO6)2,1.6881999999999997
Ba6LiNb2Ir(ClO6)2,1.5715
Ba6LiNb2Ir(ClO6)2,0.0
Ba6LiNb2Ir(ClO6)2,1.5303999999999998
Ba6LiNb2Ir(ClO6)2,1.5421999999999998
Ba6Lu2(WO6)3,2.9903
Ba6Lu2Al4O15,3.8537999999999997
Ba6Lu2Ga4O15,3.4879
Ba6Mg(IrO3)6,0.0
Ba6Mg(P2O7)3,1.5761000000000003
Ba6Mg(P2O7)3,0.9244000000000003
Ba6Mg(TiS5)2,0.1192000000000002
Ba6Mg(TiS5)2,0.18399999999999972
Ba6Mg11F34,6.5470999999999995
Ba6Mg23,0.0
Ba6Mg7F26,6.8161000000000005
Ba6Mg7H26,2.9720000000000004
Ba6MgCo2(Sb2O9)2,1.2958000000000003
Ba6MgCo2(Sb2O9)2,0.49629999999999974
Ba6MgCo2(Sb2O9)2,0.0
Ba6MgCr2O10,1.3093
Ba6MgNb2Ir(ClO6)2,0.23919999999999986
Ba6MgNb2Ir(ClO6)2,0.15759999999999996
Ba6MgNb2Ir(ClO6)2,0.06259999999999977
Ba6MgNb2Ir(ClO6)2,0.056299999999999795
Ba6MgNb2Ir(ClO6)2,0.24049999999999994
Ba6MgSc2C2(O3F7)2,4.1158
Ba6Mn2Zn(ClF2)6,2.9227000000000003
Ba6Mn4Co2ClO16,0.26659999999999995
Ba6Mn4Si12Cl3O34,0.009799999999999809
Ba6Mn5O16,1.2141000000000002
Ba6Na16N,0.0
Ba6Na2As2Ru2O17,0.3530000000000002
Ba6Na2Cr2Ru2O17,0.0
Ba6Na2Mn2Nb2O17,9.999999999976694e-05
Ba6Na2Mn2Ru2O17,0.3832
Ba6Na2Nb2P2O17,3.0126000000000004
Ba6Na2Nb2V2O17,0.0
Ba6Na2Nb2V2O17,2.88
Ba6Na2P2Ru2O17,0.0
Ba6Na2Si4O15,4.1718
Ba6Na2Ta2Mn2O17,0.00010000000000021103
Ba6Na2Ta2V2O17,0.0
Ba6Na2V2Ru2O17,0.41449999999999987
Ba6Na2V2Sb2O17,0.0
Ba6NaCu3Te14,0.6019999999999994
Ba6NaNd(SiO4)4,3.6475999999999997
Ba6Nb14Si4O47,0.0
Ba6Nb2Ir(ClO6)2,0.0
Ba6Nb3HO14,3.4195
Ba6Nb4S13O3,2.2867
Ba6Nb5S17,0.0
Ba6Nb9CoO30,0.0
Ba6Nd2Al4O15,3.9421
Ba6Nd2Al4O15,3.8495
Ba6Nd2Fe4O15,2.3557
Ba6Nd2Ga4O15,3.6494999999999997
Ba6Nd2Ti4O17,2.6869000000000005
Ba6Nd2Y(CuO2)12,0.0
Ba6Nd2Y(MoO6)3,1.1591000000000005
Ba6Nd3TiCu6(MoO12)2,0.0
Ba6Ni25S27,0.0
Ba6Os2N6O,0.0
Ba6Pr2Co4O15,1.4233000000000002
Ba6Pr2Fe4O15,2.369
Ba6Pr2Ga4O15,3.6579999999999995
Ba6Pr2Mg(Ru2O9)2,0.0
Ba6Pr2Y(CuO2)12,0.0
Ba6Pr3I19,0.7793999999999999
Ba6Re2N6O,0.0
Ba6Ru2Pt(ClO6)2,0.1227999999999998
Ba6Ru3(ClO6)2,0.0
Ba6Si25,0.04319999999999968
Ba6Si6CN14,0.0
Ba6Sm2Al4O15,3.9418999999999995
Ba6Sm2Ga4O15,3.6226000000000003
Ba6Sm3Al(Cu2O5)4,0.0
Ba6Sn6Se13,9.999999999976694e-05
Ba6Sn7S20,1.3643
Ba6Sr11I34,3.3618
Ba6Sr2CoCu7O20,0.0
Ba6Sr2CoCu7O24,0.0
Ba6SrI14,2.8926
Ba6Ta9Ti7O42,0.0
Ba6Tb2Al4O15,3.9253
Ba6Tb2Ga4O15,3.5957000000000003
Ba6Tb3Nb(SnO9)2,0.0
Ba6Te10Br2O25,3.0219000000000005
Ba6Ti17O40,2.5972
Ba6Ti2Nb10Si8O51,2.3987
Ba6Ti2Nb10Si8O51,2.7184
Ba6Ti5PtO18,2.0101
Ba6Ti5S15O,0.6964999999999999
Ba6Ti7(Sb3O14)3,0.0
Ba6Ti7Nb9O42,0.0
Ba6Tl2NCl,0.0
Ba6Tm2Al4O15,3.8884999999999996
Ba6Tm2Ga4O15,3.5153
Ba6V4S11O5,1.9141000000000001
Ba6Y(ReO6)3,1.9671
Ba6Y2Al4O15,3.9211
Ba6Y2Co4O15,1.2092999999999998
Ba6Y2Fe4O15,2.4647000000000006
Ba6Y2Ga4O15,3.6041
Ba6Y2Ru3PtO18,0.0
Ba6Y2Ti4O17,2.6243
Ba6Y3Co3(Cu3O11)2,0.0
Ba6Y3Cu9O20,0.0
Ba6YBr15,3.8383000000000003
Ba6YBr15,3.8411
Ba6YCl15,4.6917
Ba6YI15,3.0726999999999998
Ba6YI15,2.955
Ba6YTl3(Cu2O7)3,0.0
Ba6Zn(InCl10)2,3.5151
Ba6Zn7F26,4.3667
Ba6ZnCo5(SiO4)6,3.061
Ba6Zr(Zn3S7)2,1.5411000000000001
Ba6ZrO8,2.6917999999999997
Ba7(BIr)12,0.0
Ba7(ClF6)2,6.0482
Ba7Al10,0.0
Ba7Al13,0.0
Ba7Al4Ge9,0.0
Ba7Al4Sb9,0.0
Ba7Al64O103,4.2537
Ba7B4S13,2.5225
Ba7B4Se13,2.1147
Ba7BrClF12,5.6222
Ba7Ca2Mn3Cr2O20,0.0
Ba7Ca2Mn3V2O20,2.1808
Ba7Ca2Mn5O20,0.7955000000000001
Ba7Cd31,0.0
Ba7Cu3H17,1.4593999999999998
Ba7Fe6(OF16)2,0.8217000000000001
Ba7Fe6CuF34,0.6143000000000001
Ba7Fe7F34,1.9244
Ba7Ga4As9,0.7708999999999997
Ba7Ga4P9,0.8887
Ba7Ga4Sb9,0.0
Ba7Ga5AgSe15,1.9040000000000001
Ba7Ge39,0.0
Ba7Ge6,0.0
Ba7GeB3BrO13,3.5639000000000003
Ba7GeB3ClO13,3.5944000000000003
Ba7GeN6,0.9194
Ba7HfN6,1.0038
Ba7Hg31,0.016999999999999904
Ba7In2(Se3F4)2,1.1987999999999999
Ba7Ir6O19,0.0
Ba7Li3(RuO5)4,0.0
Ba7MnFe6F34,2.1105
Ba7Na3Ti7Nb3O30,1.1139999999999999
Ba7Na5Li3N3,0.0
Ba7Nb4MoO20,2.6403
Ba7Pb17O24,2.1197000000000004
Ba7Ru4Br2O15,0.0
Ba7Ru4Cl2O15,0.0
Ba7Sc6Al2O19,2.4206999999999996
Ba7SiB3NO13,0.6212
Ba7SiB3NO13,0.18159999999999998
Ba7SiN6,0.8496000000000001
Ba7Sn3S13,2.0817
Ba7Sn3Se13,1.4091999999999998
Ba7Sn3Te3Se10,1.2349999999999999
Ba7SnN6,0.9098999999999999
Ba7Sr(Cu2O5)4,0.0
Ba7Sr(CuO3)8,0.0
Ba7Sr5(MoN4)4,2.0781
Ba7SrCoCu7O24,0.0
Ba7Ti2Nb4O21,2.5316
Ba7TiN6,1.1057000000000001
Ba7U7O24,0.34160000000000057
Ba7V6CoCl4O21,1.3615