formula,band_gap
Fe3Pd,0.0
Fe3PdN,0.0
Fe3Pt,0.0
Fe3PtN,0.0
Fe3Re,0.0
Fe3Rh,0.0
Fe3Rh3S8,0.0
Fe3RhN,0.0
Fe3S,0.0
Fe3S4,0.0
Fe3Sb,0.0
Fe3Sb(PO4)4,0.0
Fe3Sb(PO4)6,0.0
Fe3Sb2(BrO)4,2.3936
Fe3Sb5(IO3)3,2.5007
Fe3SbN,0.0
Fe3Se3O10,1.1118000000000001
Fe3Se4,0.0
Fe3Si,0.0
Fe3Si2Ni3,0.0
Fe3Si2O9,0.0
Fe3Si4Ir,0.0
Fe3SiNi,0.0
Fe3SiP5O19,1.4964
Fe3Sn,0.0
Fe3Sn2,0.0
Fe3SnC,0.0
Fe3SnSb,0.0
Fe3Te2Se,0.0
Fe3Te3ClO10,1.9995999999999996
Fe3TeO8,0.0
Fe3W,0.0
Fe3W3C,0.0
Fe3W3N,0.0
Fe4(CuO4)3,0.0
Fe4(P2O7)3,2.3761
Fe4(PO4)3,0.0766
Fe4(PO4)3,1.5798999999999999
Fe4(PO4)3,0.5861999999999998
Fe4(PO5)3,0.0
Fe41O56,0.29540000000000033
Fe43O64,0.7730999999999999
Fe46(BC3)3,0.0
Fe4As10PbO22,1.7469
Fe4As2O11,0.9936000000000003
Fe4As2O11,0.7292000000000001
Fe4As3O16,0.15850000000000009
Fe4As4H4O19,0.054099999999999995
Fe4As5O13,1.7174999999999998
Fe4As5O13,1.1366999999999998
Fe4Bi2O9,2.0273999999999996
Fe4Bi2O9,1.2366000000000001
Fe4C,0.0
Fe4Co(BiO3)5,1.0819999999999999
Fe4Co(BiO3)5,1.4885000000000002
Fe4Co(BiO3)5,0.006800000000000139
Fe4Co3(PO4)6,1.8370000000000006
Fe4CoB2P,0.0
Fe4CoSiB2,0.0
Fe4CuNiO8,0.1676000000000002
Fe4H14O13,1.8087
Fe4H14O13,1.8444
Fe4H14O13,1.8694000000000002
Fe4Mo,0.0
Fe4Mo2N,0.0
Fe4N,0.0
Fe4Ni3(PO4)6,1.8411000000000004
Fe4Ni4PdS8,0.0
Fe4Ni5P3,0.0
Fe4NiSe10,0.0
Fe4O3F5,0.0
Fe4O3F5,1.3912
Fe4O3F5,0.29879999999999995
Fe4O3F5,1.1990999999999998
Fe4O3F5,0.29949999999999966
Fe4O3F5,1.2005000000000001
Fe4O3F5,0.7379
Fe4O3F5,1.1787
Fe4O3F5,0.8981000000000001
Fe4O3F5,0.8973000000000002
Fe4O3F5,0.8299999999999998
Fe4O3F5,0.897
Fe4O3F5,1.615
Fe4O3F5,0.6722000000000001
Fe4O3F5,0.5970000000000002
Fe4O3F5,0.08720000000000006
Fe4O3F5,0.8954999999999997
Fe4O3F5,0.5979000000000003
Fe4O3F5,1.4527
Fe4O3F5,0.4542999999999997
Fe4O3F5,1.4955000000000003
Fe4O3F5,0.8964000000000001
Fe4O3F5,1.2903000000000002
Fe4O5,0.0
Fe4O5F3,0.0
Fe4O5F3,0.09339999999999993
Fe4O5F3,0.019200000000000106
Fe4O5F3,0.09540000000000015
Fe4O7F,0.0
Fe4OF6,2.6285000000000003
Fe4OF6,0.0
Fe4OF6,2.7805
Fe4OF6,2.7828
Fe4OF6,2.3076
Fe4OF7,1.9109
Fe4OF7,2.0168
Fe4OF7,0.7312999999999998
Fe4OF7,1.9472999999999998
Fe4OF7,0.8003
Fe4OF7,1.1945999999999999
Fe4OF7,1.1598
Fe4OF7,0.04849999999999999
Fe4OF7,1.6444999999999999
Fe4OF7,0.8093999999999999
Fe4OF7,2.0456
Fe4OF7,0.5399
Fe4OF7,0.7885999999999997
Fe4OF7,0.8366
Fe4OF7,0.4707000000000001
Fe4OF7,1.9278
Fe4OF7,0.0
Fe4OF7,2.005
Fe4OF7,1.7312
Fe4OF7,0.8031999999999999
Fe4OF7,1.8525999999999998
Fe4OF7,1.4884
Fe4OF7,1.3306000000000002
Fe4OF7,0.11509999999999998
Fe4OF7,1.5281
Fe4OF8,1.7812000000000001
Fe4P2O9,2.8438000000000003
Fe4P3(HO5)3,1.6644999999999999
Fe4P3H4NO12,3.3855000000000004
Fe4P7O24,0.0
Fe4P9O32,0.0
Fe4S5,0.0
Fe4Si,0.0
Fe4Si2Sn7O16,0.0
Fe4SiO9,0.0
Fe4Te3S,0.0
Fe4Te3Se,0.0
Fe4TeSe3,0.0
Fe4W2N,0.0
Fe5(BO3)6,0.0
Fe5(BiO4)3,1.7527
Fe5(GeO4)3,1.6987
Fe5(O4F)2,0.0
Fe5(OF2)4,0.0
Fe5(OF4)2,1.3733000000000002
Fe5(OF4)2,0.13779999999999992
Fe5(OF4)2,1.3040999999999998
Fe5(OF4)2,1.2064000000000001
Fe5(OF4)2,1.3142
Fe5(OF4)2,0.9343999999999999
Fe5(OF4)2,0.8942999999999999
Fe5(OF4)2,0.8964999999999999
Fe5(OF4)2,1.2575999999999998
Fe5(OF4)2,0.5643
Fe5(OF4)2,0.9391999999999998
Fe5(OF4)2,1.4859
Fe5(OF4)2,1.4931
Fe5(OF4)2,1.1663999999999999
Fe5(OF4)2,1.7760999999999998
Fe5(OF4)2,0.8138000000000001
Fe5(OF4)2,0.6182999999999998
Fe5(OF4)2,0.9513999999999998
Fe5(P2O7)4,0.0
Fe5(P3O11)2,0.8186999999999999
Fe5(PO4)4,0.5714000000000001
Fe5(SiO4)3,1.9406000000000003
Fe5(SiO4)3,2.4238
Fe5B2P,0.0
Fe5Bi4O13F,2.0697
Fe5C2,0.0
Fe5Co(PO4)6,1.1190999999999998
Fe5Co3,0.0
Fe5Co3O16,0.0
Fe5Cu(PO4)6,0.0
Fe5Cu2(PO4)6,0.0
Fe5CuO8,0.29610000000000003
Fe5CuO8,0.15280000000000005
Fe5CuO8,0.0
Fe5GeP,0.0
Fe5HO8,1.1038999999999999
Fe5Ni(PO4)6,0.0
Fe5Ni4P3,0.0
Fe5Ni7S16,0.0
Fe5NiO8,0.0
Fe5O3F7,0.5321
Fe5O3F7,0.30069999999999997
Fe5O3F7,0.7847999999999997
Fe5O3F7,1.3664
Fe5O3F7,0.8980000000000001
Fe5O3F7,0.8976999999999999
Fe5O3F7,0.8967999999999998
Fe5O3F7,0.9020999999999999
Fe5O3F7,0.8991000000000002
Fe5O3F7,0.7459
Fe5O3F7,0.04360000000000008
Fe5O3F7,0.6281999999999999
Fe5O3F7,1.2456
Fe5O3F7,0.8092000000000001
Fe5O3F7,1.2357000000000002
Fe5O3F7,0.8992
Fe5O3F7,0.7926000000000002
Fe5O3F7,1.3902
Fe5O7,0.0
Fe5O7F3,0.0
Fe5O8,0.0
Fe5OF11,1.7294
Fe5OF11,1.2588
Fe5P3O13,0.8651
Fe5P3O13,1.1176999999999997
Fe5P3O17,0.0
Fe5P4(H3O10)2,1.4431000000000003
Fe5P6WO24,2.3386
Fe5Sb(PO4)6,2.1937999999999995
Fe5Sb4,0.0
Fe5Si2B,0.0
Fe5Si3,0.0
Fe5SiAs,0.0
Fe5SiB2,0.0
Fe5SiC,0.0
Fe5SiO8,1.4485000000000001
Fe5SiP,0.0
Fe5Sn(PO4)6,1.2554999999999998
Fe5SnO8,0.0
Fe5Te(PO4)6,0.7252000000000001
Fe5Te6(ClO9)2,0.02149999999999963
Fe65(BN)6,0.0
Fe6BC,0.0
Fe6BMo6C,0.0
Fe6BP,0.0
Fe6Bi(P3O13)2,0.0
Fe6CuP4(H4O7)4,1.0402
Fe6Ge2N,0.0
Fe6Ge5,0.0
Fe6H12Pb(SO7)4,0.8248
Fe6Ni9S20,0.0
Fe6O11F,0.0
Fe6O5F7,1.1375000000000002
Fe6O5F7,1.2309
Fe6O5F7,0.8985000000000001
Fe6O5F7,1.2268000000000001
Fe6O5F7,1.1932999999999998
Fe6O5F7,0.9536999999999998
Fe6O5F7,0.8984999999999999
Fe6O5F7,0.8514999999999999
Fe6O5F7,0.8958000000000002
Fe6O5F7,1.1926
Fe6O5F7,1.1988999999999999
Fe6O5F7,1.0872000000000002
Fe6O5F7,1.1025000000000003
Fe6O5F7,1.1959000000000002
Fe6O5F7,0.5981999999999998
Fe6O5F7,1.3921999999999999
Fe6O5F7,1.1952
Fe6O7F5,0.0
Fe6O7F5,0.0674999999999999
Fe6O7F6,0.0
Fe6OF11,1.8698
Fe6OF11,0.8029000000000002
Fe6OF11,0.2912999999999999
Fe6OF11,1.8601999999999999
Fe6OF11,1.1898
Fe6OF11,1.6231000000000002
Fe6P4H17O27,1.7833
Fe6P4H17O27,1.5183000000000002
Fe6SiB,0.0
Fe6W6C,0.0
Fe7(AsO4)6,1.5249
Fe7(CoO6)2,0.0929000000000002
Fe7(Ni3O8)2,0.6642999999999999
Fe7(OF3)3,1.8449999999999998
Fe7(OF7)2,1.0390000000000001
Fe7(P2O7)4,1.0213
Fe7(PO4)6,0.04640000000000022
Fe7(PO4)8,0.0
Fe7(PO5)4,1.5842
Fe7(PO5)4,0.023600000000000065
Fe7(SiO3)8,0.34179999999999966
Fe7(SiO4)4,1.9259999999999997
Fe7(SiO6)2,0.35220000000000073
Fe7(SiO6)2,0.8632999999999997
Fe74W13,0.0
Fe7C3,0.0
Fe7Co,0.0
Fe7Ge4,0.0
Fe7Mo6,0.0
Fe7Ni5P4,0.0
Fe7O3F13,1.2861
Fe7O7F,0.0
Fe7O8,0.0
Fe7O8,1.0723000000000003
Fe7P12WO48,0.0
Fe7P6(HO6)4,3.1224
Fe7Pb7F34,2.2939
Fe7S8,0.0
Fe7Sb10(Br4O9)2,2.4551000000000003
Fe7Sb10(Cl4O9)2,2.5717
Fe7Sb3P3(BrO6)3,0.0
Fe7Sb3P3(ClO6)3,0.0
Fe7Se8,0.0
Fe7Si3(H4O9)2,1.5576
Fe7SiO10,0.0004999999999997229
Fe7SiO10,0.0
Fe7Te(PO4)12,0.0
Fe7W6,0.0
Fe8Cu3Te12(Cl5O16)2,0.0
Fe8H10O17,1.7132
Fe8H10O17,1.5656999999999999
Fe8H10O17,1.642
Fe8H10O17,1.4497
Fe8H10O17,1.7452
Fe8H10O17,1.4807
Fe8H10O17,1.4166999999999998
Fe8N,0.0
Fe8N3,0.0
Fe8O9,0.9057
Fe8O9,1.4134000000000002
Ga4HCl6,3.3938
Ga4Hg11(AsBr4)4,0.8595999999999999
Ga4Hg11(PCl4)4,1.7187999999999999
Ga4Ni3,0.0
Ga4Ni3Pd,0.0
Ga4Ni3Pt,0.0
Ga4P4O17,4.6331
Ga4Si12H138C55S4,3.7169
Ga4SiO8,2.4256999999999995
Ga5(PS)3,1.3431000000000002
Ga5Ag13,0.0
Ga5CuSe8,0.39349999999999996
Ga5CuTe8,0.40659999999999963
Ga5Fe6,0.0
Ga5Ir3,0.0
Ga5Ni,0.0
Ga5Pd,0.0
Ga5Pd13,0.0
Ga5Pt,0.0
Ga5Rh3,0.0
Ga5W2,0.0
Ga6AgSb7(TeCl3)8,1.4202000000000001
Ga6CuSb7(TeCl3)8,1.1443
Ga6P8H56C14N7O32F,4.2694
Ga6SnTe10,0.8614000000000006
Ga6SnTe10,0.7473000000000005
Ga6Te10Pb,1.0010000000000003
Ga7(CuSe4)3,0.0
Ga7(Fe3O8)3,1.7148000000000003
Ga7Ni3,0.0
Ga7Pd3,0.0
Ga7Pt3,0.0
Ga7Sb7(Te4Cl13)2,1.4002000000000001
Ga7Te10,0.8714
Ga8(Pb3O7)3,2.697
Ga8As16H102C32(S12O)3,2.5981
Ga8BIr4,0.0
Ga8Cu3Mo2,0.0
Ga8Cu3W2,0.0
Ga8Sb7Se8Cl29,1.6846999999999999
Ga8Sb7Te8Cl29,1.4718999999999998
Ga9Ir2,0.0
Ga9Ni13,0.0
Ga9Rh2,0.0
GaAg,0.0
GaAg(GeSe3)2,1.2636
GaAg(PSe3)2,1.5032999999999999
GaAg(PSe3)2,0.6700999999999997
GaAg(SO4)2,3.1128
GaAg2,0.0
GaAg3,0.0
GaAg3F6,0.0
GaAgGeS4,1.662
GaAgO2,0.5611000000000002
GaAgO2,0.3037000000000001
GaAgO2,0.5832999999999999
GaAgO2,0.2884
GaAgS2,0.7168000000000001
GaAgS2,0.9622000000000002
GaAgS2,1.0204999999999997
GaAgSe2,0.0
GaAgSe2,0.24919999999999987
GaAgSeS,0.6068999999999998
GaAgSeS,0.6333
GaAgSnSe4,0.8903000000000001
GaAgSnSe4,0.8816000000000002
GaAgTe2,0.0
GaAgTe2,0.1926000000000001
GaAgTeSe,0.24649999999999972
GaAs,0.0
GaAs,0.18610000000000015
GaAs,0.22380000000000022
GaAs(H2O3)2,3.063
GaAs(H2O3)2,3.052
GaAsO4,3.0848999999999998
GaAsO4,3.0694
GaAsO4,1.1042999999999998
GaAsPd5,0.0
GaAsRh4,0.0
GaAu,0.0
GaAu2,0.0
GaAuO2,0.0
GaBH6,4.921
GaBO3,3.8638999999999997
GaBP2H5NO9,4.6499
GaBPbO4,3.3713999999999995
GaBi,0.0
GaBi25O39,2.1910000000000007
GaBi3,0.0
GaBi3Sb2O11,2.7016
GaBiO3,1.2244000000000002
GaBiO3,1.8794000000000004
GaBiO3,3.0525
GaBr2,3.1033
GaBr2,3.3765
GaBr3,3.3559
GaCl2,3.8564000000000003
GaCl3,4.1775
GaCl3,4.202999999999999
GaClO,2.6954000000000002
GaCo,0.0
GaCo2Ni,0.0
GaCo3,0.0
GaCo4,0.0
GaCo4Ge3,0.0
GaCoPH18C9NCl2O3,3.327
GaCu(WO4)2,0.9748999999999999
GaCu2,0.0
GaCu2,None
GaCu3,0.0
GaCu3HgSe4,0.0
GaCu4,0.0
GaCu4Ni15,0.0
GaCuBr4,1.9902
GaCuCl4,1.8173
GaCuGeSe4,0.7335000000000003
GaCuI4,1.6966999999999999
GaCuNi2,0.0
GaCuO2,0.7812999999999999
GaCuO2,0.10340000000000016
GaCuO2,0.7286999999999999
GaCuPd2,0.0
GaCuPt2,0.0
GaCuRh2,0.0
GaCuS2,0.1839000000000004
GaCuS2,0.7056000000000004
GaCuSe2,0.03980000000000006
GaCuSeS,0.4579
GaCuSnSe4,0.4173
GaCuTe2,0.0
GaCuTe2,0.20579999999999998
GaCuTeSe,0.0242
GaF3,4.7051
GaFe,0.0
GaFe(BiO3)2,1.6718000000000002
GaFe2,0.0
GaFe2BO5,2.1137999999999995
GaFe2Co,0.0
GaFe2Co4Si,0.0
GaFe2Ni,0.0
GaFe3,0.0
GaFe3As,0.0
GaFe3N,0.0
GaFe4,0.0
GaFe4Co8Si3,0.0
GaFe7N2,0.0
GaFeCo2,0.0
GaFeGe,0.0
GaFeIr2,0.0
GaFeNi2,0.0
GaFeNiO4,0.0
GaFeO3,0.1724000000000001
GaFeO3,2.1227000000000005
GaFeRh2,0.0
GaFeRu2,0.0
GaGe,0.0
GaGe2H5CNO6,3.7018
GaGe3Rh4,0.0
GaGeP(SO6)2,2.1299
GaGePt6,0.0
GaGeRu2,0.0
GaGeS4,0.012399999999999967
GaGeS4,0.0
GaGeTe,0.16720000000000024
GaGeTe2,0.0
GaH12C4NCl3,3.9311999999999996
GaH12N3(OF2)3,5.216200000000001
GaH13(C2N)2,3.4495999999999998
GaH15(C2N)2,4.0135000000000005
GaH15N5Cl3,4.2614
GaH18C3(N3F2)3,4.9737
GaH18I3N7,1.5066000000000002
GaH19C8,3.558
GaH20C2S2NO14,4.8359
GaH20C2S2NO14,4.7139999999999995
GaH36C12S6(IO2)3,3.0307
GaH3Br3N,3.6361
GaH3NF3,5.3088999999999995
GaH4NF4,5.1596
GaH5(NF)2,2.7259
GaH6C2SeI3,2.6612
GaH6N2F3,5.2732
GaH7(NF2)2,5.0153
GaH8N2OF5,5.805400000000001
GaH9(NF)3,5.0556
GaHCl2,4.788
GaHO2,3.0016
GaHO2,3.2607000000000004
GaHO2,2.8219
GaHSeO4,4.1423000000000005
GaHg2SbCl4,0.8072
GaHg2SbCl4,1.1427
GaHg3,0.0
GaHg3AsSCl4,2.9482
GaHg3AsSCl4,2.6748000000000003
GaHgCl4,2.8274
GaHgO2,0.0
GaI2,2.3766
GaI3,2.3721
GaIr,0.0
GaMo2C,0.0
GaMo3,0.0
GaMo4(SeS)4,0.0
GaN,1.7264999999999997
GaN,1.5701000000000005
GaN5O14,1.2545
GaN5O14,1.1539000000000001
GaNi,0.0
GaNi10P3,0.0
GaNi2,0.0
GaNi2BO5,3.0727999999999995
GaNi2Ge3,0.0
GaNi2Pt,0.0
GaNi3,0.0
GaNi3As,0.0
GaNi3C,0.0
GaNi3Sb,0.0
GaNi4Ge3,0.0
GaNi6Ge,0.0
GaNi9B8,0.0
GaNiRh2,0.0
GaP,0.8334000000000001
GaP,1.6038999999999999
GaP,1.3002000000000002
GaP,0.21080000000000076
GaP(H2O3)2,4.4271
GaP2H11O12,4.892
GaP2H15C5(NO4)2,4.5686
GaP2H15C5(NO4)2,4.5474
GaP2I9,1.7111999999999998
GaP3(HO5)2,5.04
GaP3(NCl3)3,3.9061000000000003
GaPH11C3Cl,4.854900000000001
GaPH4NO5,0.21910000000000002
GaPH9C3Cl3O,4.9838000000000005
GaPO4,4.439100000000001
GaPO4,4.4398
GaPO4,4.698
GaPPd5,0.0
GaPPt5,0.0
GaPS4,2.3331
GaPb3,0.0
GaPbF5,4.7215
GaPd,0.0
GaPd2,0.0
GaPd3,0.0
GaPt,0.0
GaPt2,0.0
GaPt3,0.0
GaPtO2,0.0
GaRe,0.0
GaRe(Cl3O)2,1.6391
GaRh,0.0
GaRh3,0.0
GaRu,0.0
GaS,2.0036
GaS,2.0183
GaS,1.8664999999999998
GaS5N5Cl4,2.2969
GaSb,0.0
GaSb2(TeCl2)2,0.6435
GaSb3,0.0
GaSb3Pb4O13,1.3889999999999993
GaSbCl6,3.928
GaSbO4,0.7966999999999995
GaSe,1.2233
GaSe,1.2405999999999997
GaSe,1.2386999999999997
GaSe,1.2121
GaSe2NCl6,1.5667
GaSe3N2Cl5,1.7959
GaSeBr7,2.2203
GaSeCl,2.51
GaSi2As(H3C)8,3.7194000000000003
GaSi3C3N,2.5994
GaSi3PH30C10(NCl2)2,3.1254
GaSi4H30C10Cl,3.8218
GaSi6BiH54C18(NCl)4,1.3898
GaSiNi6,0.0
GaSiRu2,0.0
GaSn3,0.0
GaSnP(SO6)2,2.7257
GaTc,0.0
GaTc2W,0.0
GaTe,0.7852999999999999
GaTe,1.0066000000000002
GaTe4(MoSe)4,0.0
GaTeCl,2.1702
GaTeI7,1.8676
GaTeO3F,3.7146000000000003
Gd,0.0
Gd(Al2Cr)4,0.0
Gd(Al2Cu)4,0.0
Gd(Al2Fe)4,0.0
Gd(Al3Ni)3,0.0
Gd(Al5Ru)2,0.0
Gd(AlC)3,0.0
Gd(AlCu)6,0.0
Gd(AlFe)6,0.0
Gd(AlGe)2,0.0
Gd(AlSi)2,0.0
Gd(BC)2,0.0
Gd(BIr)4,0.0
Gd(BO2)3,2.7580000000000005
Gd(BO2)3,2.6929999999999996
Gd(BO2)6,0.128
Gd(BOs)2,0.0
Gd(BRh)4,0.0
Gd(BRu)2,0.0
Gd(BiO2)4,0.0
Gd(C2N3)3,1.8058
Gd(ClO4)3,2.2925
Gd(Co2B)6,0.0
Gd(Co5Mo)2,0.0
Gd(CoB)2,0.0
Gd(CoB)4,0.0
Gd(CoGe)2,0.0
Gd(CoSi)2,0.0
Gd(CrSi)2,0.0
Gd(CuO2)2,0.0
Gd(CuS)3,0.9673000000000007
Gd(CuSi)2,0.0
Gd(CuSn)2,0.0
Gd(Fe5Si)2,0.0
Gd(FeGe)2,0.0
Gd(FeP3)4,0.0
Gd(FeSi)2,0.0
Gd(Ga2Fe)4,0.0
Gd(GaFe)6,0.0
Gd(Ge2Rh3)2,0.0
Gd(GePd)2,0.0
Gd(GeRh)2,0.0
Gd(HO)3,0.24980000000000002
Gd(IO3)3,1.2373000000000003
Gd(IO3)3,3.0524
Gd(LuS2)3,1.0029
Gd(Mg4Al3)4,0.0
Gd(MnGe)2,0.0
Gd(NO3)3,2.5904000000000003
Gd(Ni2B)6,0.0
Gd(NiAs)2,0.0
Gd(NiP)2,0.0
Gd(NiSb)2,0.0
Gd(PO3)3,1.3121
Gd(PO3)3,3.4526
Gd(PRu)2,0.0
Gd(PdO2)2,0.0
Gd(Re2Si)2,0.0
Gd(SO4)3,0.0
Gd(SiAg)2,0.0
Gd(SiAu)2,0.0
Gd(SiNi)2,0.0
Gd(SiNi5)2,0.0
Gd(SiOs)2,0.0
Gd(SiPd)2,0.0
Gd(SiPt)2,0.0
Gd(SiRh)2,0.0
Gd(SiRu)2,0.0
Gd(Sn3Ru2)2,0.0
Gd(Tl3Te2)3,0.4971999999999994
Gd(VFe5)2,0.0
Gd(Zn10Co)2,0.0
Gd10S14O,1.1242
Gd10S19,0.0
Gd11In9Ni4,0.0
Gd12Co6Pb,0.0
Gd13Ge6O31F,0.6162000000000001
Gd2(Al3Ir)3,0.0
Gd2(Al3Rh)3,0.0
Gd2(FeB)7,0.0
Gd2(Ga3Co)3,0.0
Gd2(Ga3Ir)3,0.0
Gd2(MoO4)3,3.0587
Gd2(MoO4)3,3.1014
Gd2(MoO4)3,2.9179
Gd2(WO4)3,2.9956
Gd2(WO4)3,3.6577
Gd2(Zn2Ge)3,0.0
Gd2AgAu,0.0
Gd2AgHg,0.0
Gd2AgIr,0.0
Gd2AgRh,0.0
Gd2AgRu,0.0
Gd2Al3Ge4,0.0
Gd2Al4CoGe2,0.0
Gd2Al6Si4Au,0.0
Gd2Al6Si4Pt,0.0
Gd2AlCd,0.0
Gd2AlCo2,0.0
Gd2AlFe3,0.0
Gd2AlGe2,0.0
Gd2AlGe6,0.0
Gd2AlNi2,0.0
Gd2AlZn,0.0
Gd2As4O11,2.1943
Gd2AsO5,2.2475000000000005
Gd2Au5F21,1.5508000000000002
Gd2B(OF)3,2.7369
Gd2B3C2,0.0
Gd2B4O9,2.3766
Gd2B4O9,2.8237
Gd2B5,0.0
Gd2B6Os,0.0
Gd2Be2GeO7,3.2492
Gd2Be2SiO7,3.3147999999999995
Gd2BiO2,0.0
Gd2Br3,0.22949999999999982
Gd2Br3N,1.8727
Gd2C,0.0
Gd2C(NO)2,2.4609
Gd2C3,0.0
Gd2CBr,0.0
Gd2CCl,0.0
Gd2CCl2,0.4861
Gd2CF2,0.7328000000000001
Gd2CI,0.0
Gd2CdHg,0.0
Gd2CdIn,0.0
Gd2CdO4,0.0
Gd2CdPd2,0.0
Gd2CdS4,1.4040999999999997
Gd2CdSe4,0.9607000000000001
Gd2Cl3,0.1814
Gd2Cl3,0.16170000000000018
Gd2Co17,0.0
Gd2Co2I,0.0
Gd2CoB3,0.0
Gd2CoNi3,0.0
Gd2CoSi2,0.0
Gd2CoTe2(SO7)2,2.1633999999999998
Gd2Cr2C3,0.0
Gd2CrSbO7,1.9649
Gd2Cu(GeO3)4,0.6917
Gd2Cu(GeO4)2,0.6356999999999999
Gd2Cu(SeO3)4,0.0
Gd2CuAu,0.0
Gd2CuO4,0.0
Gd2CuOs,0.0
Gd2CuRu,0.0
Gd2CuTe2(SO7)2,0.011200000000000099
Gd2Fe12P7,0.0
Gd2Fe14B,0.0
Gd2Fe14C,0.0
Gd2Fe17,0.0
Gd2Fe17C,0.0
Gd2Fe17C3,0.0
Gd2Fe17H3,0.0
Gd2Fe17N2,0.0
Gd2Fe2I,0.0
Gd2Fe5Si8,0.0
Gd2FeSbO7,1.8178
Gd2Ga8Co,0.0
Gd2GaAg,0.0
Gd2GaSbO7,2.3773999999999997
Gd2Ge(BO4)2,3.1837999999999997
Gd2Ge2O7,2.4725
Gd2GeBr2,0.0
Gd2GeMoO8,2.4793000000000003
Gd2GeO5,0.0
Gd2Hf2(MoO4)7,3.0940000000000003
Gd2Hf2O7,2.8263
Gd2HfO5,3.1449000000000003
Gd2HfO5,2.9160000000000004
Gd2HfO5,3.1575000000000006
Gd2HfS5,1.0037000000000003
Gd2HgO4,1.7532
Gd2In,0.0
Gd2InAg,0.0
Gd2InGe2,0.0
Gd2InHg,0.0
Gd2InNi2,0.0
Gd2InPd2,0.0
Gd2InSbO7,2.3762000000000003
Gd2IrAu,0.0
Gd2IrPd,0.0
Gd2IrRh,0.0
Gd2IrRu,0.0
Gd2Mg,0.0
Gd2MgAl,0.0
Gd2MgCd,0.0
Gd2MgGe2,0.0
Gd2MgIn,0.0
Gd2MgIrO6,0.0
Gd2MgMo2(ClO4)2,1.6193000000000002
Gd2MgMo2(ClO4)2,1.4198
Gd2MgNi2,0.0
Gd2MgPtO6,2.0357999999999996
Gd2MgRu,0.0
Gd2MgS4,0.0
Gd2MgS4,1.7786999999999997
Gd2MgS4,1.7146
Gd2MgS4,1.3708999999999998
Gd2MgSe4,0.9533999999999998
Gd2MgSi2,0.0
Gd2MgTl,0.0
Gd2MgTl2(WO4)4,1.7665000000000002
Gd2MgTl2(WO4)4,1.8432
Gd2MgV2O8,1.4005
Gd2Mn(GeO3)4,2.0811
Gd2Mn17C3,0.0
Gd2Mn3Sb3O14,0.8407
Gd2MnCoO6,0.011499999999999844
Gd2MnGa6,0.0
Gd2MnNiO6,0.0
Gd2MnS4,0.8582999999999998
Gd2MnSbO7,1.6004000000000005
Gd2Mo(SeO4)3,2.7361999999999993
Gd2Mo2C3,0.0
Gd2Mo2O7,0.0
Gd2Mo4O15,2.5091
Gd2Mo5O18,3.1154
Gd2MoO6,2.1748
Gd2NCl3,0.0
Gd2Nb2N2O5,1.593
Gd2Nb2S7O30,0.029799999999999993
Gd2Nb3Ge4,0.0
Gd2NbGaO7,2.0418999999999996
Gd2NbInO7,2.4048
Gd2Ni17,0.0
Gd2Ni2Sn,0.0
Gd2Ni7,0.0
Gd2NiB10,0.0
Gd2NiIr,0.0
Gd2NiO4,0.08920000000000083
Gd2NiPtO6,0.0
Gd2NiRu,0.0
Gd2NiRuO6,0.0
Gd2O3,2.6982999999999997
Gd2O3,2.9411000000000005
Gd2O3,2.9056999999999995
Gd2P4O13,2.6834
Gd2P4O13,3.2969999999999997
Gd2P4O13,3.3476
Gd2P4O13,3.2682
Gd2PbS4,0.9544999999999995
Gd2PdRu,0.0
Gd2Re2Si2C,0.0
Gd2Re3Si5,0.0
Gd2ReC2,0.0
Gd2ReO5,0.0
Gd2Ru2O7,0.0
Gd2RuRh,0.0
Gd2S2O,1.7211000000000003
Gd2S3,0.4598
Gd2S3,0.5267
Gd2S3,1.0219000000000005
Gd2S3O20,1.0852
Gd2SCl4,1.1898
Gd2SCl4,1.5483000000000002
Gd2SO2,2.0193999999999996
Gd2SbO2,0.0
Gd2Sc3Ge4,0.0
Gd2Sc3Si4,0.0
Gd2ScNbO7,2.3666
Gd2Se2O,1.3044000000000002
Gd2Se3,0.4490000000000003
Gd2SeO2,1.3547000000000002
Gd2SeOF2,1.3914999999999997
Gd2Si2O7,3.2104
Gd2Si2O7,2.6085999999999996
Gd2Si2O7,2.7790999999999997
Gd2Si3Ni,0.0
Gd2Si4CN6,2.0209
Gd2SiO5,2.762
Gd2SiTeO4,0.0
Gd2Sn2O7,0.0
Gd2SnAu2,0.0
Gd2SnS5,0.0
Gd2Te3,0.11299999999999955
Gd2Te4O11,0.24800000000000022
Gd2Te4O11,2.4482999999999997
Gd2TeO2,1.0708000000000002
Gd2TeO6,0.0
Gd2Ti12(CuO4)9,0.08289999999999953
Gd2Ti2O7,0.0
Gd2Ti2O7,2.4088999999999996
Gd2TiCuO6,0.0
Gd2TiO5,2.8111000000000006
Gd2TiO5,2.8953
Gd2TiO5,2.7020000000000004
Gd2TiZnO6,2.7632000000000003
Gd2TlAg,0.0
Gd2TlCd,0.0
Gd2TlHg,0.0
Gd2TlZn,0.0
Gd2US5,0.0
Gd2USe5,0.0
Gd2V2O7,1.0482000000000005
Gd2V2O7,0.9804999999999997
Gd2VFeO6,1.6075
Gd2W2O9,2.3196999999999997
Gd2W2O9,2.8302
Gd2W2O9,2.1613999999999995
Gd2W2O9,1.8332000000000002
Gd2W4O15,2.8721
Gd2W4O15,3.4916
Gd2W4O15,2.8791
Gd2WO6,0.0
Gd2Zn17,0.0
Gd2ZnAg,0.0
Gd2ZnGa,0.0
Gd2ZnHg,0.0
Gd2ZnIn,0.0
Gd2ZnPtO6,0.0
Gd2ZnRh,0.0
Gd2ZnRu,0.0
Gd2ZnTe2(SO7)2,0.31210000000000004
Gd2Zr2O7,1.0690999999999997
Gd2Zr2O7,2.0251999999999994
Gd2Zr2O7,2.7790000000000004
Gd2Zr2O7,3.1542999999999997
Gd2ZrS5,0.0
Gd3(AlNi3)2,0.0
Gd3(BiO4)2,0.0
Gd3(CoGe2)2,0.0
Gd3(CuGe)4,0.0
Gd3(GaNi3)2,0.0
Gd3(MnC3)2,0.0
Gd3(P3Pd10)2,0.0
Gd3(SiNi3)2,0.0
Gd3Ag,0.0
Gd3Al,0.0
Gd3Al2(Ni2H3)3,0.0
Gd3Al5O12,3.4625
Gd3Al7Ag2,0.0
Gd3AlC,0.0
Gd3AlCdS7,1.4117000000000002
Gd3AlVS7,0.0
Gd3AlZnS7,1.3672999999999997
Gd3As5O12,2.386
Gd3AsO7,1.7692999999999999
Gd3AsO7,2.3103
Gd3AsO7,2.2214
Gd3Au,0.0
Gd3AuO6,1.5063
Gd3B2(O2F)3,2.8409000000000004
Gd3B7W,0.0
Gd3BBr3,0.0
Gd3BWO9,3.2389
Gd3BeCrS7,0.45370000000000044
Gd3BiO3,0.0
Gd3CCl3,0.0
Gd3CI3,0.06109999999999971
Gd3Cd,0.0
Gd3Co11B4,0.0
Gd3Co29(Si2B5)2,0.0
Gd3Co4Ge13,0.0
Gd3Co4Sn13,0.10170000000000012
Gd3Cu2Te7,0.0
Gd3Cu3Sb4,0.3003
Gd3CuGeS7,1.133
Gd3CuGeSe7,0.7897000000000003
Gd3CuSiS7,1.1604
Gd3CuSiSe7,0.8443999999999998
Gd3CuSnS7,1.2450999999999999
Gd3CuSnSe7,0.7696999999999998
Gd3Dy,0.0
Gd3Er,0.0
Gd3ErNi4,0.0
Gd3FeO6,2.5521000000000003
Gd3Ga,0.0
Gd3Ga2,0.0
Gd3Ga5O12,2.9042000000000003
Gd3GaC,0.0
Gd3GaNiSe7,0.0
Gd3GaO6,2.7288999999999994
Gd3Ge13Ir4,0.0
Gd3Ge13Os4,0.0
Gd3Ge13Ru4,0.0
Gd3GeO8,0.0
Gd3Ho,0.0
Gd3I,0.0
Gd3In,0.0
Gd3InN,0.0
Gd3InO6,2.2306
Gd3InO6,2.8589
Gd3InS6,0.9636000000000005
Gd3InS6,0.9606999999999992
Gd3Lu,0.0
Gd3Lu2(GaO4)3,3.0789999999999997
Gd3MgAlS7,1.3590999999999998
Gd3Mn3Ga2Si,0.0
Gd3MnAlS7,0.27939999999999987
Gd3MnB7,0.0
Gd3MnGaS7,0.34609999999999985
Gd3MoO7,0.0
Gd3NCl6,1.9483000000000001
Gd3NbO7,2.3502
Gd3NbO7,2.5311
Gd3NbO7,2.1570000000000005
Gd3NbO7,2.2513
Gd3NbO7,2.282
Gd3NbO7,1.9501999999999997
Gd3NbS3O4,0.14659999999999984
Gd3Ni19B10,0.0
Gd3Ni7B2,0.0
Gd3OsO7,0.0
Gd3OsO7,0.1301000000000001
Gd3P4Pd7,0.0
Gd3Pd2,0.0
Gd3Pt,0.0
Gd3ReO7,0.0
Gd3ReO8,1.3884000000000003
Gd3RuO7,0.13890000000000002
Gd3RuO7,0.15420000000000034
Gd3S4,0.0
Gd3SOF5,1.9623000000000002
Gd3Sb4,0.0
Gd3Sb4Au3,0.4978000000000007
Gd3Sb5O12,2.7146000000000003
Gd3SbO3,0.24929999999999986
Gd3SbO7,2.4705
Gd3SbO7,2.4773
Gd3SbO7,2.5258999999999996
Gd3SbO7,2.5326999999999997
Gd3Sc2Al3O12,3.2885000000000004
Gd3Sc2S7,0.0
Gd3ScS6,0.3895999999999997
Gd3Se2NO,1.754
Gd3Se3N,1.1217000000000001
Gd3Se4,0.0
Gd3Se4O12F,2.7816
Gd3Si,0.0
Gd3Si2BO10,2.807
Gd3Si2BrO8,2.1851000000000003
Gd3Si2Cl5O6,2.531
Gd3Si2S8Br,0.0
Gd3SiBr3,0.0
Gd3SnC,0.0
Gd3TaO7,2.3606999999999996
Gd3TaO7,2.6961
Gd3TaO7,2.5573
Gd3TaO7,2.5638
Gd3Te2NO,0.8444999999999996
Gd3TiS6,0.0
Gd3TlC,0.0
Gd3VGeO9,2.8429
Gd3W(ClO2)3,2.5504000000000002
Gd3Y,0.0
Gd3Y(FeO3)4,1.5032
Gd3Y13O24,3.4815000000000005
Gd3Y13O24,3.4494999999999996
Gd3Y3Fe23,0.0
Gd3Y5O12,0.0
Gd3YO6,2.9007999999999994
Gd3YO6,2.9924
Gd3YV4O16,2.9739
Gd3Zn,0.0
Gd3Zn5Ge,0.0
Gd4(GeS4)3,1.1759
Gd4(SiS4)3,1.1710000000000003
Gd4(SiS4)3,1.2438000000000002
Gd4As2O9,2.2439999999999998
Gd4Au2O9,1.8748999999999998
Gd4B3C4,0.0
Gd4B4O11F2,2.9050000000000002
Gd4BClO7,2.9754999999999994
Gd4C2Cl3,0.0
Gd4Co3,0.0
Gd4CoB13,0.0
Gd4Cu5P7,0.0
Gd4Ga12Pd,0.0
Gd4Ga16Co3,0.0
Gd4Ga2O9,3.0852999999999997
Gd4GaSbS9,1.5180000000000002