formula,band_gap
KNaMg14,0.0
KNaMg14O15,0.44209999999999994
KNaMg14O15,1.4495000000000005
KNaMg2F6,6.286899999999999
KNaMg2F6,6.3905
KNaMg2Si4(O5F)2,5.2111
KNaMg30O31,1.9217999999999993
KNaMg30O31,2.4729
KNaMg30O31,2.6365000000000003
KNaMg30O31,2.3825000000000003
KNaMg3Zn2(Si2O5)6,4.285
KNaMg5(Si2O5)6,4.7418000000000005
KNaMn(Si2O5)2,3.0188000000000006
KNaMnO2,0.27449999999999974
KNaMo(OF2)2,2.2298999999999998
KNaMo2O5,0.4535999999999998
KNaMoWO6,0.20929999999999982
KNaNb2O6,1.9820999999999998
KNaNb4O12,0.0
KNaNbOF5,4.274
KNaNbOF5,4.3822
KNaNdNbO5,3.4433999999999996
KNaNdTaO5,3.5147
KNaO,2.1322
KNaP2H2O7,5.2201
KNaP6(PbO3)8,3.3234000000000004
KNaPrNbO5,3.4049
KNaPrTaO5,3.4578999999999995
KNaReH9,5.4451
KNaS,2.4851
KNaS2O7,5.2338000000000005
KNaSO4,5.0709
KNaSO4,4.9724
KNaSe,2.0636
KNaSe,2.0175
KNaSi2O5,4.0020999999999995
KNaSi2O5,4.4523
KNaSiF6,6.9998000000000005
KNaSmNbO5,3.4945
KNaSmTaO5,3.6034000000000006
KNaSnF6,5.1714
KNaSr8(BO3)6,3.7852
KNaSrMg5(SiO3)8,3.3545999999999996
KNaTe,1.9491
KNaTe(HO)6,4.0913
KNaThF6,6.5711
KNaTi2(PO5)2,3.0614
KNaTi4(BiO6)2,2.3362000000000003
KNaTi4(BiO6)2,2.432
KNaTi4(PO4)6,2.4827
KNaTiH2O3F4,2.6546
KNaTiO3,3.542
KNaTiSi3(HO5)2,3.3986
KNaV2O6,2.9290000000000003
KNaV4H4O11,2.4342
KNaV6(PbO3)8,2.943
KNaW(OF2)2,3.1664
KNaZnO2,1.7792
KNaZnP2O7,4.2431
KNaZrSi3H4O11,4.920400000000001
KNb(AgSe2)2,1.4589999999999999
KNb(BO3)2,3.5488
KNb(BO3)2,3.1131
KNb(CuS2)2,1.7079000000000004
KNb(CuSe2)2,1.4228
KNb(PO4)2,3.0929
KNb2(PS6)2,0.0013999999999998458
KNb2Cl11,2.1197
KNb2InO6,0.0
KNb2O5,0.0
KNb2PO8,1.9419
KNb2PS10,1.4962
KNb2PSe10,0.8172999999999999
KNb3(PO5)3,0.0
KNb3(SeO6)2,2.3298
KNb3(TeO6)2,2.4149000000000003
KNb3CuO9,0.4316
KNb3O8,2.4752
KNb3VCl11,0.038899999999999935
KNb4Ag(PS10)2,1.3531999999999997
KNb4AsO13,2.4151000000000002
KNb4AsO13,2.436
KNb4Bi5O18,2.6414
KNb4InO12,1.7758
KNb4O5F,0.0
KNb5O13,2.3545000000000003
KNb5Pb2O15,1.9074999999999998
KNb5Pb2O15,1.7623000000000002
KNb8O14,0.0
KNbCl6,2.2064
KNbCl6,2.2276000000000002
KNbCl6,2.0965000000000003
KNbF6,5.1164
KNbF6,5.1345
KNbN2,2.0359
KNbO2F,0.0
KNbO3,1.4759999999999998
KNbO3,2.0585
KNbO3,2.2934
KNbO3,1.4120999999999997
KNbPCO7,0.4433
KNbPO5,0.0
KNbS2,0.8120000000000003
KNbSe2,0.6854999999999993
KNbSi2O7,3.431
KNbV2O8,2.4054
KNbW2O9,1.7707
KNbWO6,3.0355000000000003
KNbWO6,2.9797000000000002
KNd(CO3)2,4.3598
KNd(MoO4)2,3.3362000000000003
KNd(PO3)4,5.356
KNd(PO3)4,5.3535
KNd(SO4)2,5.6613
KNd(SO4)2,5.3574
KNd(SeO4)2,3.4429
KNd(WO4)2,3.8022
KNd2Br5,0.4337
KNd2CuS4,0.9129
KNd2NbO6,3.6157000000000004
KNd3Te8,0.43989999999999974
KNd9(Si3O13)2,4.454
KNdDySbO6,3.1776
KNdEuWO6,0.17300000000000004
KNdEuWO6,0.5143000000000004
KNdF4,7.126
KNdFeBiO6,0.42220000000000013
KNdFeSnO6,0.0
KNdGeS4,2.3670999999999998
KNdH2S2O9,5.3773
KNdH6C4O11,3.2645
KNdHf2O6,2.7817
KNdHf4O12,0.0
KNdHfSnO6,3.3158
KNdHfTiO6,2.2033
KNdHfZrO6,2.6382000000000003
KNdInSbO6,1.2359
KNdMnWO6,2.6477
KNdNb2O6,0.0
KNdNb4O12,1.5341
KNdNbInO6,2.99
KNdO2,3.7088
KNdO2,3.8089000000000004
KNdPdO3,0.6506000000000003
KNdS2,2.2595
KNdSnWO6,2.2540000000000004
KNdSnWO6,2.0177
KNdTe2,1.2648000000000001
KNdTe4,0.1570999999999998
KNdTi4O12,0.0
KNdTiO4,2.3606999999999996
KNdTiSnO6,2.8321000000000005
KNdV4O12,0.38229999999999986
KNdYSbO6,3.1407999999999996
KNdZr2O6,2.5109999999999997
KNdZrFeO6,0.0
KNdZrGeO6,3.2514000000000003
KNdZrNbO6,0.0
KNdZrSnO6,3.1768
KNdZrTiO6,2.1104000000000003
KNi(PO3)3,4.7306
KNi2H3(SeO5)2,2.6967
KNi3As3O11,2.6083
KNi3P3O11,4.159700000000001
KNi4(PO4)3,3.5552
KNiAs3F18,4.3455
KNiAsO4,0.0
KNiBiWO6,1.3429000000000002
KNiCl3,0.7022999999999999
KNiF3,0.0
KNiH9(CO5)2,0.0
KNiIO6,1.7517999999999998
KNiN,0.2126999999999999
KNiPH2O5,4.0043999999999995
KNiPO4,2.909
KNiPS4,0.5294000000000003
KNiSbO4,1.7597000000000005
KNiTeO6,0.0
KNp2F9,0.2835000000000001
KNpAgS3,0.0
KNpCuS3,0.0
KNpN3O11,0.09819999999999995
KNpO3,0.0
KO2,0.49780000000000024
KO2,0.0
KO2,0.1547
KO3,0.6496
KO3,0.5808
KOsF6,1.3498
KOsNO3,2.6059
KOsNOF5,0.9869
KOsO3,0.0
KP,1.0349999999999997
KP(HO)2,5.1321
KP(HO2)2,5.4908
KP(HO2)2,5.2889
KP(HO2)2,5.2639
KP(HO2)2,5.5939000000000005
KP(HO2)2,5.4325
KP(HO2)2,5.3629999999999995
KP(HO2)2,5.2175
KP(HO2)2,4.919
KP(HO2)2,5.333
KP(HO2)2,5.7515
KP(HO2)2,4.8366
KP(HO2)2,5.2602
KP(OF)2,5.2364999999999995
KP15,1.5227000000000004
KP2(HO2)3,5.7662
KP2(HO2)4,0.2609999999999999
KP2(W3O11)2,0.0
KP2Au5S8,1.4084
KP2AuS7,1.5496999999999999
KP2H4PtO9,1.9183999999999999
KP2H5O8,5.6194999999999995
KP2H8SN7O2,4.5052
KP2W7O25,0.5797000000000001
KP2WO8,0.5784000000000002
KP4(WO4)8,1.2777999999999998
KP4N7,3.7455
KPAuSe3,0.9936999999999998
KPF6,7.2209
KPF6,7.0367999999999995
KPF6,7.117799999999999
KPH12PtC2N2(ClO2)2,2.5976999999999997
KPH2O3,3.9123
KPH2SO3,4.5259
KPH3NO3,4.8337
KPH3NO3,5.4787
KPH3O3F,6.6429
KPH3O4,5.2301
KPH3O4F,5.727499999999999
KPH3O4F,5.7538
KPH5C2S2(NO)3,3.4045
KPH5C2SN3O4,3.7596
KPH6C2(NO)4,5.2859
KPHNO2,5.2353000000000005
KPHO3,5.309799999999999
KPHO3F,5.1767
KPO3,5.056
KPO3,4.821199999999999
KPO3,5.0422
KPO3,5.1472999999999995
KPO3,4.9014999999999995
KPO4,0.0
KPPbS4,2.3165999999999998
KPPdS4,1.477
KPS3,1.7149
KPSO2,4.1722
KPSe3,1.4182
KPSe3,1.3151
KPSe6,1.8827999999999998
KPWCO7,2.8067
KPaO3,3.0477
KPb,0.37349999999999994
KPb2,0.0
KPb2Br5,3.0729
KPb2C2O6F,3.0942
KPb2Cl5,3.6136999999999997
KPb2Cl5,3.3836
KPb3,0.0
KPbBr3O,1.6397
KPbI3,2.4115
KPbO2,0.0
KPbO3,0.0
KPd2F5,0.0
KPd2O3,0.26480000000000015
KPdF3,0.0
KPdO3,0.0
KPr(MoO4)2,3.3437999999999994
KPr(PO3)4,5.422700000000001
KPr(PO3)4,5.3491
KPr(PSe3)2,2.0113000000000003
KPr(SO4)2,5.5778
KPr(SeO4)2,3.4507
KPr(SnO3)2,1.1534000000000004
KPr(WO4)2,3.8769
KPr3Te8,0.46750000000000025
KPr5(CCl5)2,2.1273000000000004
KPr6OsI10,0.0
KPr9(Si3O13)2,4.4388
KPrAlBiO6,0.0
KPrCrWO6,0.0
KPrDyFeO6,0.27100000000000035
KPrDyGeO6,0.0
KPrDyNbO6,2.4221
KPrDySbO6,3.2328000000000006
KPrEuWO6,0.14109999999999978
KPrEuWO6,0.5705999999999998
KPrF4,7.1334
KPrFeBiO6,0.3772000000000002
KPrGdFeO6,0.07830000000000004
KPrGeSe4,1.6332
KPrHf2O6,2.8145999999999995
KPrHf4O12,0.0
KPrHfInO6,0.0
KPrHfSnO6,3.3666999999999994
KPrHfWO6,0.0
KPrHfZrO6,2.6626999999999996
KPrInSbO6,1.1905999999999999
KPrMgBiO6,0.0
KPrMgWO6,2.9739
KPrMnNbO6,0.0
KPrMnWO6,1.3222999999999998
KPrNb4O12,1.6235
KPrNbInO6,3.018
KPrNiWO6,3.1020999999999996
KPrO2,3.6626000000000003
KPrPCO7,0.10989999999999989
KPrPdO3,0.5977999999999999
KPrS2,2.2688
KPrSiSe4,2.1773
KPrSmSbO6,3.0568999999999997
KPrTe2,1.2799999999999998
KPrTe4,0.17629999999999946
KPrTi4O12,0.0
KPrV4O12,0.48730000000000007
KPrVWO6,0.40080000000000027
KPrYFeO6,0.2740999999999998
KPrYNbO6,2.4244000000000003
KPrYSbO6,3.2201000000000004
KPrZnWO6,3.106
KPrZr2O6,2.5349999999999997
KPrZrNbO6,0.0
KPt2S3,1.2738999999999998
KPt2Se3,0.9439000000000002
KPt3O4,0.0
KPtN,0.0
KPtN2O5,0.6258
KPtO3,0.0
KPtS2O9,0.0
KPu2F9,0.30889999999999995
KPuCO5,0.4342999999999999
KPuO3,0.0
KPuP2S7,0.036900000000000155
KRb(Fe2S3)2,0.0
KRb(InAu2)4,0.0
KRb(SO4)2,0.011299999999999866
KRb2AlBr6,3.283
KRb2AlCl6,4.6491
KRb2AlF6,6.4284
KRb2AlI6,1.7559
KRb2AsBr6,3.0145
KRb2AsCl6,3.4879
KRb2AsF6,4.5539000000000005
KRb2AsI6,2.0398
KRb2AuBr6,0.0
KRb2AuCl6,0.2445
KRb2AuF6,0.7444000000000001
KRb2BiF6,4.7966999999999995
KRb2CO3F,3.6470000000000002
KRb2CoF6,0.0
KRb2CrF6,4.1522
KRb2CrF6,4.1253
KRb2CuF6,0.8802000000000001
KRb2DyCl6,4.8552
KRb2ErCl6,4.8731
KRb2EuCl6,0.0
KRb2FeF6,4.140000000000001
KRb2GaBr6,2.1466000000000003
KRb2GaCl6,3.3948
KRb2GaF6,5.7756
KRb2GaF6,5.8894
KRb2GaI6,0.8478999999999999
KRb2GdCl6,3.253
KRb2InBr6,2.3963
KRb2InCl6,3.5425000000000004
KRb2InF6,5.3194
KRb2InF6,5.364599999999999
KRb2InF6,5.5594
KRb2InI6,1.2656
KRb2IrF6,2.5351
KRb2LaCl6,4.7565
KRb2LuCl6,4.9104
KRb2MnF6,0.0
KRb2MnF6,1.7046999999999999
KRb2Mo(OF)3,2.7955
KRb2Mo(OF)3,3.4493
KRb2MoF6,3.6262000000000003
KRb2NbF6,0.0
KRb2NiF6,0.0
KRb2PdF6,0.0
KRb2PdF6,0.5057
KRb2RhF6,2.1662
KRb2RuF6,0.0
KRb2ScBr6,3.1917999999999997
KRb2ScCl6,4.0163
KRb2ScF6,6.5991
KRb2ScF6,6.517799999999999
KRb2ScF6,6.3812999999999995
KRb2ScI6,2.339
KRb2SiF7,5.729100000000001
KRb2SmCl6,4.796
KRb2TbCl6,4.6099
KRb2TiF6,0.0
KRb2TlBr6,1.4100000000000001
KRb2TlCl6,2.416
KRb2TlF6,3.8556999999999997
KRb2TlI6,0.4749
KRb2TmCl6,4.871499999999999
KRb2VF6,0.0
KRb2W(OF)3,3.5105999999999997
KRb2YF6,6.383
KRb2ZrOF5,4.5842
KRb3,0.0
KRb3CdCl6,3.9322999999999997
KRb5Zn4Sn5S17,1.5766999999999998
KRbAu2,0.0947
KRbCl2,4.7258000000000004
KRbCl2,4.9089
KRbCuH12(SeO7)2,0.5293
KRbGeO3,3.0096
KRbMg30O31,1.9122
KRbMg30O31,2.2295
KRbMg30O31,2.6892999999999994
KRbMg30O31,2.1900000000000004
KRbMn2Ga4P6(H2O7)4,3.3545
KRbMnF6,3.3434999999999997
KRbMnV2O7,2.5913
KRbO,1.2445
KRbO,0.0
KRbS,2.2214
KRbTi4(PO4)6,2.5755
KRe2O4F7,2.6228000000000002
KRe3Os3(Se4Cl3)2,1.3025
KRe4O8F13,2.9076
KReN2,0.0
KReO3,0.0
KReO4,3.7244
KRhF6,0.0
KRhO3,0.0
KRu(NO2)4,0.0
KRuF6,1.1302
KRuO3,0.0
KRuO4,0.0
KS,1.469
KS2N(O2F)2,5.4444
KS2N(O2F)2,5.4398
KS2O3,3.7767
KS3,1.8888999999999998
KSO2F,4.1568000000000005
KSO2F,3.9815
KSO3,4.9772
KSO3,4.995
KSO3F,5.1171999999999995
KSO4,0.0
KSO4,3.5589999999999997
KSO4,3.5193000000000003
KSb,0.6095000000000002
KSb(MoO4)2,2.2544000000000004
KSb(PO4)2,2.9558999999999997
KSb(PS3)2,2.2731000000000003
KSb(PSe3)2,1.8059
KSb(SO4)2,4.2351
KSb2,0.21530000000000005
KSb2F7,3.8831
KSb2P(SO6)2,4.109999999999999
KSb2PO8,2.3609
KSb2PO8,2.2122
KSb2Te2(HO2)2,0.5748999999999995
KSb3O5,2.9593000000000003
KSb4F13,4.6612
KSb4F13,4.7516
KSb5O13,0.7948
KSb5O13,0.7755000000000001
KSb5S8,1.3375
KSbAs(O2F)2,0.0
KSbCl6,2.0845000000000002
KSbClF3,4.4254
KSbF4,4.4258
KSbF6,4.9633
KSbF6,4.9334999999999996
KSbMoO5,3.2057
KSbN(OF)3,3.2613000000000003
KSbO2,2.011
KSbO3,1.7858999999999998
KSbO3,1.1212999999999997
KSbO3,2.6808
KSbP(O2F)2,0.05309999999999998
KSbPCO7,0.0
KSbS2,1.601
KSbSe2,1.4531999999999998
KSbSe2,1.1298000000000001
KSbWO6,2.8241000000000005
KSc(BH4)4,4.9752
KSc(BH4)4,4.6518
KSc(MoO4)2,3.6159999999999997
KSc(SO4)2,4.2783
KSc(SO4)2,4.4071
KSc(WO4)2,4.1493
KSc(WO4)2,3.1121000000000003
KSc2F7,5.7069
KScAs2(HO4)2,3.86
KScBP2HO9,4.6379
KScF4,6.0931
KScH4(C2O5)2,3.262
KScO2,3.6240999999999994
KScTl2F6,4.6231
KSe,0.0
KSe,0.7039
KSe3,0.0
KSeO2F,3.3338
KSeO4,0.0
KSi,1.5811
KSi,1.2619000000000002
KSi2BO6,5.3233999999999995
KSi2BP(H3C)9,2.7658
KSi2H14C4N,4.0663
KSi2HO5,4.7912
KSi2HO5,5.0122
KSi2HO5,4.8853
KSi2N3,3.6731999999999987
KSi4H27(C3O)3,2.7485999999999997
KSi4O9,0.5781000000000001
KSi5BO13,0.31980000000000003
KSi5N7,3.4174999999999995
KSiBiS4,2.0549
KSiH3,2.5733
KSiHO3,4.768199999999999
KSiO3,0.21320000000000003
KSiO3,0.0
KSiPCO7,5.168
KSiSbO5,2.8079
KSm(CO3)2,4.3453
KSm(MoO4)2,3.3128
KSm(MoO4)2,3.6536
KSm(MoO4)2,3.3731999999999998
KSm(PO3)4,5.2969
KSm(SO4)2,5.6574
KSm(SeO4)2,3.4146
KSm(WO4)2,3.5365
KSm(WO4)2,3.8226999999999998
KSm(WO4)2,4.5182
KSm2Br5,0.4477000000000002
KSm2Cl5,0.4721000000000002
KSm2Cl7,4.5743
KSm2CuS4,0.5692000000000004
KSm2I5,0.0
KSm2Sb3Se8,0.5093999999999999
KSmEuSbO6,0.0
KSmEuWO6,0.4419000000000004
KSmEuWO6,0.16389999999999993
KSmF4,6.9859
KSmGeSe4,1.6626
KSmH2S2O9,5.5172
KSmH4(N2O7)2,3.3023
KSmHf2O6,2.7483000000000004
KSmHf4O12,0.0
KSmHfSnO6,3.2508999999999997
KSmHfZrO6,2.6097
KSmO2,3.8604
KSmP2S7,2.6285000000000003
KSmP3HO10,5.4649
KSmPdO3,0.7336
KSmS2,2.2759
KSmS2O9,0.8392999999999999
KSmSe2,1.8906000000000003
KSmSnWO6,2.3670000000000004
KSmSnWO6,2.0587000000000004
KSmTe2,1.2623000000000002
KSmTi4O12,0.0
KSmTiO4,2.3370999999999995
KSmTiSnO6,2.8282000000000003
KSmV4O12,0.4585999999999999
KSn,0.7336999999999998
KSn2,0.0
KSn2(PO4)3,3.4498999999999995
KSn2Br5,2.3617999999999997
KSn2Cl5,3.0071
KSn2F5,2.1299
KSn2F5,2.9857
KSn2F5,0.0
KSn2H36C12(Se2N)3,1.8887
KSn2I5,1.5097999999999998
KSn3,0.0
KSn4(PO4)3,3.7642999999999995
KSnAs,0.33519999999999994
KSnAsO5,2.1357
KSnAsS5,1.7082
KSnAuS3,1.6528
KSnAuSe3,1.4172999999999998
KSnBr3,2.2679
KSnF3,3.5114
KSnI3,1.9381
KSnN,1.0276999999999994
KSnO2,1.9693
KSnPCO7,2.4247
KSnPO5,3.0231000000000003
KSnPS4,2.1224000000000003
KSnS2,0.0
KSnS4,1.4139
KSnSO4F,3.8899
KSnSb,0.26090000000000035
KSnSe2,0.0
KSr(BH4)3,5.7155000000000005
KSr(BiO3)2,0.0
KSr2(BiO3)3,0.0
KSr2Br5,4.2816
KSr2Cd2Sb3,0.1842999999999999
KSr2Cl5,5.2608999999999995
KSr2I5,3.6492999999999998
KSr2Nb4FeO15,0.0
KSr2Nb5O15,2.2069
KSr2Si4O10F,4.8589
KSr3,0.0
KSr3La8Mn12O36,0.0
KSr4(BO3)3,4.173
KSr4Si8H17O29,4.2387
KSr6Sc(SiO4)4,4.2940000000000005
KSrAs(H4O3)4,4.3016
KSrB(PO4)2,5.2873
KSrB5O9,5.1442000000000005
KSrBi2O5,0.0
KSrBiWO6,2.2671000000000006
KSrBiWO6,2.1867
KSrCO3F,4.1032
KSrCaMnO6,0.0
KSrCeBiO6,1.6961
KSrCeBiO6,1.6021
KSrCeFeO6,0.0
KSrCeMnO6,0.0
KSrCeNbO6,2.0627999999999997
KSrCeNbO6,2.0721
KSrCeSbO6,1.9095000000000004
KSrCeSbO6,1.9232999999999998
KSrCeWO6,0.6406000000000005
KSrCeWO6,0.0
KSrDyWO6,2.8841
KSrEuFeO6,0.0
KSrEuWO6,0.0
KSrGdMnO6,0.0
KSrGdWO6,2.8469999999999995
KSrGdWO6,2.8354999999999997
KSrHfBiO6,1.1399
KSrI3,3.9993000000000003
KSrLa4Mn6O18,0.0
KSrLaSeO6,2.1093
KSrLaWO6,2.9551000000000003
KSrLaWO6,2.9628999999999994
KSrMg14,0.0
KSrMnBiO6,0.0
KSrMnSnO6,0.0
KSrNb2O6F,1.7845
KSrNbBiO6,0.0
KSrNdFeO6,0.0
KSrNdMnO6,0.0
KSrNdSeO6,1.9635000000000002
KSrNdWO6,2.8579999999999997
KSrNdWO6,2.8257999999999996
KSrPO4,5.0889
KSrPrBiO6,0.0
KSrPrFeO6,0.0
KSrPrMnO6,0.0
KSrPrNbO6,0.0
KSrPrSbO6,0.0
KSrPrSeO6,1.9789000000000003
KSrPrWO6,2.8314000000000004
KSrPrWO6,2.8602
KSrSbWO6,1.1933999999999996
KSrSbWO6,1.3453
KSrSmFeO6,0.0
KSrSmMnO6,0.0
KSrSmSeO6,1.9386000000000005
KSrSmWO6,2.849
KSrSmWO6,2.8665000000000003
KSrSnBiO6,0.0
KSrTbBiO6,0.0
KSrTbSbO6,0.0
KSrTbWO6,2.8873999999999995
KSrVO4,3.49
KSrVO4,3.8445
KSrYWO6,2.8822
KSrZrBiO6,1.0927000000000002
KSrZrBiO6,1.0783999999999998
KTa(AgSe2)2,1.7478
KTa(BO3)2,3.6136
KTa(CuSe2)2,1.6646
KTa(GeO3)3,3.5181
KTa(PO4)2,3.3393
KTa2O6,0.0
KTa2PO8,2.7489
KTa3(TeO6)2,2.9431000000000003
KTa3CuO9,0.0
KTa5O13,3.1482
KTa5Pb2O15,2.4503999999999997
KTaCl6,2.8634
KTaF6,6.2645
KTaF6,6.3736999999999995
KTaGeO5,3.9009
KTaN2,2.6384
KTaO3,2.0995
KTaP4O13,3.6681
KTaPS6,1.5714
KTaS5,1.3518
KTaSi2O7,3.5987
KTaTe3,0.41800000000000015
KTaTiO5,3.019
KTaV2O8,2.716
KTaW2O9,1.4278000000000002
KTaWO6,3.2588
KTb(CO3)2,4.4195
KTb(MoO4)2,3.2563999999999997
KTb(MoO4)2,3.6116
KTb(PO3)4,5.33
KTb(WO4)2,3.3535000000000004
KTb2Cl7,4.6587000000000005
La8C8Cl5,0.0
La8Cu3O16,0.0
La8Cu7O19,0.0
La8Hf4MgO20,0.27500000000000036
La8Hf4MgO20,1.0652
La8MgAl7O24,0.0
La8Nb7S22,0.0
La8Ni4O17,0.0
La8Ru4O21,0.0
La8Sb14Pt17,0.0
La8Sb2S15,1.9357999999999995
La8Sb2Se15,1.5434
La8ScTi6NbO28,2.8333000000000004
La8Si5N14O,2.3602000000000007
La8Te3SeO8,2.0661999999999994
La8Ti2Ga2O19,2.6223
La9(SbO)5,0.0
La9Al5S21,2.1750000000000007
La9Al5Se21,1.694
La9B3C6Br5,0.0
La9B3C6I5,0.0
La9Ce3Si8(S8I)4,0.4765000000000006
La9ErO15,3.8645999999999994
La9Ga5S21,1.6185
La9Ga5Se21,0.7680999999999996
La9Ge5S21,0.0
La9In(SiS7)3,1.9284
La9In5S21,1.7648000000000001
La9In5Se21,1.0198
La9Lu11(GaO4)12,3.2578
La9Mn5S21,0.0
La9Ni5O19,0.0
La9Ni5S21,0.0
La9Ni6O19,0.0
La9Sb16Br3,0.22140000000000004
La9Sb5CO4,0.0
LaAg,0.0
LaAg(IO3)4,2.6566000000000005
LaAg(MoO4)2,2.5972000000000004
LaAg(PO3)4,3.5382
LaAg2,0.0
LaAg2Hg,0.0
LaAg2Sn,0.0
LaAg3,0.0
LaAg5,0.0
LaAgAs2,0.0
LaAgAu2,0.0
LaAgGe,0.0
LaAgHg2,0.0
LaAgO2,2.8266999999999998
LaAgO2,2.8013
LaAgO3,0.0
LaAgPb,0.0
LaAgSO,1.3631000000000002
LaAgSb2,0.0
LaAgSn,0.0
LaAl,0.0
LaAl(SO4)3,4.5630999999999995
LaAl12O19,0.0
LaAl2,0.0
LaAl22O34,0.0
LaAl2Ag3,0.0
LaAl2BOs2,0.0
LaAl2BRu2,0.0
LaAl2Cu3,0.0
LaAl2Pt3,0.0
LaAl2Si5N9O,2.0951999999999993
LaAl3,0.0
LaAl33O51,2.736999999999999
LaAl3Au,0.0
LaAl3Cu,0.0
LaAl3Ni2,0.0
LaAl3O6,4.1928
LaAl3Pd2,0.0
LaAl4,0.0
LaAl4Co,0.0
LaAl4Cu2Si,0.0
LaAl5Ni2,0.0
LaAlAg2,0.0
LaAlAu,0.0
LaAlCo4,0.0
LaAlCu4,0.0
LaAlCuNi3,0.0
LaAlGe,0.0
LaAlGe2O7,3.5206000000000004
LaAlH6,2.4764999999999997
LaAlNi,0.0
LaAlNi4,0.0
LaAlO3,3.7121000000000004
LaAlO3,3.5192999999999994
LaAlO3,4.0189
LaAlO3,3.4924
LaAlO3,4.276999999999999
LaAlO3,4.4362
LaAlO3,4.4777
LaAlO3,4.1704
LaAlO3,4.468500000000001
LaAlO3,4.270499999999999
LaAlO3,4.403700000000001
LaAlPt,0.0
LaAlRh,0.0
LaAlSi,0.0
LaAlSi2,0.0
LaAlZn,0.0
LaAs,0.0
LaAs2,0.18400000000000016
LaAs2,0.5974000000000004
LaAs2Au,0.0
LaAs3,0.0
LaAsIr,0.0
LaAsO3,2.6929999999999996
LaAsO4,3.7988000000000004
LaAsO4,4.0024999999999995
LaAsO4,3.8186
LaAsPd,0.0
LaAsRh,0.0
LaAsS,0.05400000000000027
LaAu,0.0
LaAu2,0.0
LaAu3,0.0
LaAuO2,2.6833
LaAuO2,2.5031
LaAuO3,1.7976999999999999
LaB2ClO4,4.154100000000001
LaB2Ir2C,0.0
LaB2Ir3,0.0
LaB2O4F,4.9384
LaB2Pd2C,0.0
LaB2Pt2C,0.0
LaB2Rh2C,0.0
LaB2Rh3,0.0
LaB2Ru3,0.0
LaB3F12,5.3268
LaB4,0.0
LaB4(IrOs)2,0.0
LaB4ClO8,0.0
LaB4Rh7,0.0
LaB5BrO11,0.009099999999999997
LaB5H5NO14,3.4072
LaB5H5NO14,3.4857
LaB5HO10,0.1492
LaB5IO11,1.2036000000000002
LaB5O9,4.4878
LaB6,0.0
LaBC,0.0
LaBMoO6,3.5622999999999996
LaBN2,2.1727999999999996
LaBO3,4.002199999999999
LaBO3,4.500700000000001
LaBPd3,0.0
LaBPt2,0.0
LaBPt3,0.0
LaBPt4,0.0
LaBRh3,0.0
LaBWO6,3.8287000000000004
LaBe13,0.0
LaBeAl3,0.0
LaBeCu12,0.0
LaBi,0.0
LaBi2Au,0.0
LaBi2ClO4,1.3154000000000003
LaBi2IO4,1.2225000000000001
LaBi3,0.0
LaBi3O8,0.0
LaBi5O9,1.4171000000000005
LaBiAu2,0.0
LaBiO3,2.4003999999999994
LaBiO3,3.0699999999999994
LaBiO4,0.5571000000000002
LaBiPd,0.1216999999999997
LaBiPt,0.0
LaBiS2O,0.8679999999999994
LaBiSe2O,0.5930999999999997
LaBr,0.0
LaBr2,0.5885000000000002
LaBr3,2.9266
LaBr3O7,2.0441
LaBrO,3.7256
LaC2,0.0
LaCBr,0.0
LaCI,0.0
LaCN2Cl,3.2
LaCN2F,2.6827999999999994
LaCO,2.7847999999999997
LaCO3F,3.9263
LaCO4,0.0
LaCO4,0.04059999999999997
LaCO4,0.35939999999999994
LaCd,0.0
LaCd(BO2)5,4.211
LaCd11,0.0
LaCd2,0.0
LaCd2Cu,0.0
LaCd2Pd,0.0
LaCd3,0.0
LaCdAg2,0.0
LaCdAu,0.0
LaCdAu2,0.0
LaCdHg2,0.0
LaCdPd,0.0
LaCe,0.0
LaCe(B2Rh3)2,0.0
LaCe(CoNi)5,0.0
LaCe(CuSi)4,0.0
LaCe(GePt)4,0.0
LaCe(MnSi)4,0.0
LaCe(Mo3S4)4,0.0
LaCe(SiPd)4,0.0
LaCe(SnRu)2,0.0
LaCe3,0.0
LaCe4,0.0
LaCe4(SiRu)10,0.0
LaCeAl2O6,0.0
LaCeAl2O6,0.2749000000000006
LaCeAl2O6,0.024399999999999977
LaCeAl4,0.0
LaCeB12,0.0
LaCeBe26,0.0
LaCeC4,0.0
LaCeCo10,0.0
LaCeCu12,0.0
LaCeF6,0.1440999999999999
LaCeHg2,0.0
LaCeIn6,0.0
LaCeMg14,0.0
LaCeMg2,0.0
LaCeMg6,0.0
LaCeMn2O6,0.0
LaCeN2,0.0
LaCeNi10,0.0
LaCeNiPt,0.0
LaCeOs4,0.0
LaCePd6,0.0
LaCePt2,0.0
LaCeRh4,0.0
LaCeRu4,0.0
LaCeSb2(SBr)4,0.43319999999999936
LaCeSbS5Br,0.3094999999999999
LaCeSi2,0.0
LaCeSi2(BO5)2,0.34060000000000024
LaCeSn6,0.0
LaCeZn2,0.0
LaCl,0.0
LaCl3,3.6454
LaCl3O7,2.7726000000000006
LaClO,4.0688
LaClO2,3.6220999999999997
LaCo,0.0
LaCo(BO2)5,3.1157000000000004
LaCo13,0.0
LaCo2AsN,0.0
LaCo2Ni3,0.0
LaCo3Ni2,0.0
LaCo4B,0.0
LaCo5,0.0
LaCo5H3,0.0
LaCo5H4,0.0
LaCo5P3,0.0
LaCo8P5,0.0
LaCo8Si5,0.0
LaCo9Si4,0.0
LaCoC2,0.04219999999999935
LaCoCu12,0.0
LaCoGe,0.0
LaCoGe2,0.0
LaCoGe3,0.0
LaCoN3,0.4901
LaCoNi4,0.0
LaCoO3,1.104
LaCoO3,0.9729999999999999
LaCoO3,0.6738999999999997
LaCoO3,0.0
LaCoO3,0.9497
LaCoO3,0.9398
LaCoO3,1.0014000000000003
LaCoO3,0.4388000000000005
LaCoSb2,0.0
LaCoSb3,0.0
LaCoSbPbO6,1.5277999999999992
LaCoSi,0.0
LaCoSi2,0.0
LaCoSi3,0.0
LaCr2Si2C,0.0
LaCrAgO6,0.8117000000000001
LaCrAsO,0.0
LaCrBiO6,1.2056
LaCrCoO6,0.8775
LaCrGe3,0.0
LaCrHO5,2.2136
LaCrN3,1.4148000000000005
LaCrO3,1.9038999999999993
LaCrO3,1.913800000000001
LaCrO3,0.0
LaCrO4,1.1265999999999998
LaCrReO6,0.0
LaCrS2O,1.0281000000000002
LaCrS3,0.0
LaCrSb3,0.0
LaCrSbO6,0.3176999999999994
LaCrSe2O,0.0
LaCrSe2O,0.8653999999999993
LaCrSe3,0.0
LaCrTeO6,2.7584999999999997
LaCrWO6,2.2439
LaCu,0.0
LaCu(MoO4)2,1.4535
LaCu(WO4)2,1.1917999999999997
LaCu13,0.0
LaCu2,0.0
LaCu2Ni3,0.0
LaCu3(RuO3)4,0.0
LaCu3Ni2,0.0
LaCu4,0.0
LaCu4P3,0.0
LaCu5,0.0
LaCu5Sn,0.0
LaCu6,0.0
LaCu9Sn4,0.0
LaCuGe,0.0
LaCuGe2,0.0
LaCuNi4,0.0
LaCuO2,2.5215999999999994
LaCuO3,0.0
LaCuPb,0.0
LaCuPbS3,1.4344999999999999
LaCuPd,0.0
LaCuS2,1.2345999999999995
LaCuSO,1.668499999999999
LaCuSb2,0.0
LaCuSe2,0.8712
LaCuSeO,1.5380999999999991
LaCuSi,0.0
LaCuSi2Ni,0.0
LaCuSn,0.0
LaCuTeO,1.1839000000000004
LaCuTeS,0.5769000000000002
LaDy,0.0
LaDyMg2,0.0
LaDyO3,4.1534
LaDyRu2,0.0
LaDyTl2,0.0
LaEr3,0.0
LaEr4Ge3,0.0
LaEr4Se7,0.0
LaErAl4,0.0
LaErIn2,0.0
LaErMg2,0.0
LaErO3,4.4376
LaErS3,0.7599999999999998
LaErS3,0.8793999999999995
LaErSe2,0.0
LaErTl2,0.0
LaEu2NbO6,0.18550000000000022
LaEu3(NiO3)4,0.0
LaEuAg2,0.0
LaEuAl4,0.0
LaEuAu2,0.0
LaEuB12,0.0
LaEuCd2,0.0
LaEuHg2,0.0
LaEuPd2,0.0
LaEuPd6,0.0
LaEuPt2,0.0
LaEuS2,0.0
LaEuZn2,0.0
LaF3,5.1213999999999995
LaF3,4.8904
LaF3,4.9199
LaF3,4.816
LaF3,6.0452
LaF3,4.9708