formula,band_gap
Li2TiFeO4,0.7818000000000005
Li2TiFeO4,0.79
Li2TiGeO5,3.4593000000000003
Li2TiMn2NiO8,0.7694000000000001
Li2TiMn2O5,0.2408999999999999
Li2TiMn2O5,0.24209999999999976
Li2TiMn2O6,0.9817
Li2TiMn2O6,1.2210999999999999
Li2TiMn3O8,0.0
Li2TiMn3O8,0.7521
Li2TiMn3O8,0.5084999999999997
Li2TiMn3O8,0.5058000000000002
Li2TiMnO4,0.0
Li2TiMnO4,0.39010000000000034
Li2TiMnO4,0.3027000000000002
Li2TiN2,0.8613999999999997
Li2TiNb3O8,0.0
Li2TiNi2O5,0.6871
Li2TiNi2O5,1.5482000000000005
Li2TiNi2O5,1.5499
Li2TiNi2O5,1.5476
Li2TiNi3O8,0.6650999999999998
Li2TiNiO4,1.6432999999999995
Li2TiNiO4,1.1865000000000006
Li2TiO3,2.0702000000000003
Li2TiO3,3.0338000000000003
Li2TiO3,2.4033999999999995
Li2TiO3,2.2599
Li2TiO3,1.4913000000000003
Li2TiP3O10,0.14110000000000023
Li2TiPCO7,0.23119999999999985
Li2TiS2O,1.9835000000000003
Li2TiSiO5,3.2152999999999996
Li2TiSn3(PO4)6,2.3922
Li2TiTeO6,2.0990999999999995
Li2TiV2O6,1.3883
Li2TiV2O6,1.2730999999999995
Li2TiV2O6,0.6610999999999998
Li2TiV3O8,1.0926999999999998
Li2TiV3O8,1.3432
Li2TiV3O8,0.9621999999999997
Li2TiV3O8,0.0
Li2TiV3O8,0.9773000000000001
Li2TiV3O8,1.0657
Li2TiV3O8,1.2734999999999999
Li2TiV3O8,1.0776000000000003
Li2TiV3O8,1.2624999999999997
Li2TiV3O8,0.006399999999999739
Li2TiV3O8,0.22089999999999987
Li2TiV3O8,0.4448000000000003
Li2TiV3O8,0.34509999999999996
Li2TiV3O8,1.2315000000000005
Li2TiV3O8,0.8803999999999998
Li2TiV5O12,1.0516999999999999
Li2TiV5O12,0.22219999999999995
Li2TiVO4,0.0
Li2TiVO4,0.21050000000000058
Li2TiVO4,0.21769999999999978
Li2TiVO5,2.2828
Li2Tl,0.0
Li2TlAg,0.0
Li2TlAu,0.0
Li2TlBi,0.22930000000000028
Li2TlCd,0.0
Li2TlHg,0.0
Li2TlIn,0.0
Li2TlPCO7,1.5182000000000002
Li2TlPb,0.0
Li2TlPd,0.0
Li2TlPt,0.0
Li2TlSb,0.6976000000000004
Li2TlSn,0.0
Li2TmIn,0.0
Li2TmPCO7,4.8642
Li2TmTl,0.0
Li2U(MoO5)2,2.4115
Li2U(WO5)2,1.2832
Li2U(WO5)2,0.8633
Li2U(WO5)2,1.0694000000000001
Li2U3(PO5)4,2.1386000000000003
Li2U3P2O15,2.2683
Li2U3V2O15,1.9974
Li2U4W4O25,1.6320000000000001
Li2U5MoO19,1.3518000000000001
Li2UBr6,0.3197000000000001
Li2UBr6,0.33089999999999997
Li2UBr6,0.3259000000000001
Li2UBr6,0.15039999999999987
Li2UBr6,0.14959999999999996
Li2UBr6,0.0
Li2UCl6,0.19809999999999972
Li2UI6,0.0
Li2UN2,0.0
Li2UO4,2.0658000000000003
Li2UO4,2.1005
Li2US3,0.0
Li2UWO7,1.8699999999999999
Li2V(BO2)5,2.5921
Li2V(CO3)2,2.9913000000000003
Li2V(CO3)2,2.6758
Li2V(CO3)2,2.8065999999999995
Li2V(CO3)2,3.1574
Li2V(CO3)2,2.2169000000000003
Li2V(CO3)2,2.4010999999999996
Li2V(CO3)2,2.2014999999999993
Li2V(CO3)2,2.5998
Li2V(CO3)2,2.6134000000000004
Li2V(CO3)2,2.4183
Li2V(CO3)2,3.0338
Li2V(CO3)2,2.8471
Li2V(CO3)2,2.6052999999999997
Li2V(CO3)3,2.3544
Li2V(FeO3)2,1.4106999999999998
Li2V(OF)2,1.9109000000000003
Li2V(OF)2,1.9125
Li2V(OF)2,1.79
Li2V(OF)2,1.5271000000000001
Li2V(OF)2,1.6495999999999997
Li2V(OF)2,0.0
Li2V(OF)2,1.5585999999999998
Li2V(OF)2,1.3353000000000002
Li2V(OF)2,0.8913999999999997
Li2V(PO3)4,1.2918000000000003
Li2V(PO3)4,3.0199
Li2V(PO3)4,2.3674
Li2V(PO3)5,1.9238000000000002
Li2V(PO3)5,1.8843
Li2V(PO4)2,1.4581999999999997
Li2V(PO4)2,1.3100999999999998
Li2V(PO4)2,0.0
Li2V(PO4)2,1.5765999999999998
Li2V(PO4)2,2.3819999999999997
Li2V(PO4)2,1.0885
Li2V(PO4)2,1.3085000000000002
Li2V(PO4)2,1.0935000000000001
Li2V(PO4)2,1.0711
Li2V(PO4)2,1.0897000000000001
Li2V(PO4)2,2.9619999999999997
Li2V(SO4)2,3.5671999999999997
Li2V(Si2O5)2,1.282
Li2V(Si2O5)3,2.2147
Li2V(Si2O5)3,2.2039999999999997
Li2V(Si2O5)3,2.0913
Li2V(Si2O5)3,2.041
Li2V(Si2O5)3,2.3511
Li2V(Si2O5)3,1.7923
Li2V(SiO3)2,1.8921999999999999
Li2V(SiO3)2,1.6437
Li2V(SiO3)3,2.1058999999999997
Li2V12O29,0.011499999999999844
Li2V18O39,0.038000000000000256
Li2V18O39,0.3714999999999997
Li2V2(PO4)3,1.0004
Li2V2(PO4)3,0.0
Li2V2(PO4)3,0.8676999999999999
Li2V2(PO4)3,0.8700000000000001
Li2V2(SO4)3,3.3510999999999997
Li2V2(SO4)3,3.5936
Li2V2(SO4)3,3.3902000000000005
Li2V2(Si2O5)3,0.8683999999999994
Li2V2(SiO3)3,1.7510000000000003
Li2V2(SiO3)3,1.5265000000000004
Li2V2CoO6,0.6882000000000001
Li2V2Cr(PO4)3,0.6630999999999996
Li2V2CrO6,0.0
Li2V2Cu(PO4)3,0.4411999999999998
Li2V2F7,0.0
Li2V2F7,0.21399999999999975
Li2V2F7,0.7864000000000001
Li2V2F7,0.45420000000000005
Li2V2F7,0.2643
Li2V2F7,0.3709999999999999
Li2V2F7,1.2155
Li2V2FeO6,0.8416999999999999
Li2V2FeO6,0.19430000000000014
Li2V2O5F2,1.7973
Li2V2O5F2,2.2056
Li2V2OF5,1.0991000000000004
Li2V2OF6,1.5524
Li2V2OF6,1.6207
Li2V2OF6,1.6402999999999999
Li2V2P2(H4O5)3,2.1731
Li2V2P2O11,1.774
Li2V2P2O11,2.0181
Li2V2P2O9,1.3212000000000002
Li2V2P4H6O17,2.1062
Li2V2P7HO24,1.4868000000000001
Li2V2S5,0.0
Li2V2Si2O9,1.3120000000000003
Li2V2Si4O11,0.020500000000000185
Li2V2Si5O13,2.3586
Li2V2SiGeO10,1.7448000000000001
Li2V2SiGeO10,1.5292
Li2V2SiGeO10,1.5351999999999997
Li2V2Sn(PO4)3,0.0
Li2V2SnO6,1.5564000000000004
Li2V3(CO3)6,0.44310000000000005
Li2V3(FeO6)2,0.0
Li2V3(OF)4,1.1647
Li2V3(OF)4,0.9256
Li2V3(P2O7)2,2.6931000000000003
Li2V3(P2O7)2,2.9492000000000003
Li2V3(P2O7)2,2.5200000000000005
Li2V3(PO4)3,0.4490000000000003
Li2V3BiO8,0.46899999999999986
Li2V3BiO8,0.6582000000000003
Li2V3CoO8,1.6401999999999997
Li2V3CoO8,0.0
Li2V3CoO8,0.8399999999999999
Li2V3CoO8,1.7605
Li2V3CoO8,0.8129
Li2V3CoO8,0.5433000000000003
Li2V3CoO8,1.5781
Li2V3CoO8,1.1109999999999998
Li2V3CoO8,0.879
Li2V3CoO8,1.5176000000000003
Li2V3CoO8,0.7871000000000001
Li2V3Cr2O12,0.0411
Li2V3CrO8,0.9156
Li2V3CrO8,1.1214
Li2V3CrO8,1.1101999999999999
Li2V3CrO8,0.0
Li2V3CrO8,1.133
Li2V3CrO8,0.9900000000000002
Li2V3CrO8,0.9151000000000002
Li2V3CrO8,0.9201000000000001
Li2V3CrO8,0.22889999999999988
Li2V3CuO8,0.0
Li2V3CuO8,0.3700000000000001
Li2V3F8,1.8531999999999997
Li2V3FeO8,1.2827999999999995
Li2V3FeO8,0.0
Li2V3FeO8,1.2138
Li2V3FeO8,1.0333999999999999
Li2V3FeO8,0.8365
Li2V3FeO8,1.1271
Li2V3FeO8,0.8409
Li2V3NiO8,0.0
Li2V3NiO8,1.6475999999999997
Li2V3O3F5,1.1186
Li2V3O3F5,1.6107999999999998
Li2V3O6,0.9597999999999995
Li2V3O6,0.6638999999999999
Li2V3O6,0.9769000000000001
Li2V3O6,0.7190000000000003
Li2V3O6,0.9841999999999995
Li2V3O6,0.6987999999999999
Li2V3O6,0.6895000000000002
Li2V3O6,0.7047000000000003
Li2V3O6,0.9237000000000002
Li2V3O6,0.4040999999999997
Li2V3O7,2.2431
Li2V3O8,1.7372
Li2V3O8,0.0
Li2V3O8,2.2077
Li2V3P4(HO4)4,2.3922000000000003
Li2V3P4H4O19,1.5511
Li2V3P5O18,1.0574
Li2V3P9O28,1.9376000000000002
Li2V3SbO8,1.8198999999999996
Li2V3SbO8,1.3082000000000003
Li2V3SbO8,0.8720000000000003
Li2V3SbO8,2.0776000000000003
Li2V3Si3O10,1.9249999999999998
Li2V3SnO8,0.030400000000000205
Li2V3SnO8,0.8097000000000003
Li2V3SnO8,1.1269
Li2V3SnO8,0.0
Li2V3SnO8,1.0666000000000002
Li2V3SnO8,1.1979000000000002
Li2V3SnO8,1.0460999999999996
Li2V3SnO8,1.0893000000000002
Li2V3SnO8,0.034900000000000375
Li2V3SnO8,1.1949
Li2V3SnO8,0.44470000000000054
Li2V3SnO8,0.5726000000000004
Li2V3SnO8,0.8920999999999997
Li2V3TeO8,0.0
Li2V3TeO8,0.014100000000000001
Li2V3TeO8,0.014899999999999913
Li2V3TeO8,0.43659999999999943
Li2V3TeO8,0.29410000000000025
Li2V3TeO8,1.1921
Li2V3WO8,0.9502000000000002
Li2V3WO8,1.5538999999999996
Li2V3WO8,1.6544999999999996
Li2V3WO8,1.5147000000000004
Li2V3WO8,1.3435999999999995
Li2V3WO8,1.3408000000000002
Li2V4CuNiO12,0.025800000000000267
Li2V4O3F8,1.0068
Li2V4O5F8,0.0
Li2V4OF12,1.3552
Li2V4P4O15,2.114
Li2V4Si4O13,1.9006999999999996
Li2V5(PO4)4,0.0
Li2V5B3O13,1.5717000000000003
Li2V5CoO12,0.0
Li2V5Cr2O12,1.2826999999999997
Li2V5CuO12,0.7572999999999999
Li2V5CuO12,0.30710000000000015
Li2V5NiO12,0.026800000000000157
Li2V5NiO12,0.30010000000000003
Li2V5O10,1.2972000000000001
Li2V5O10,0.9675000000000002
Li2V5O10,1.1581000000000001
Li2V5O10,0.9717000000000002
Li2V5O10,1.146
Li2V5O10,0.6202000000000001
Li2V5O12,0.0
Li2V6O13,0.0
Li2V6O15,0.0
Li2V6O15,0.0696000000000001
Li2VAsCO7,2.0674
Li2VBO4,2.0753
Li2VBO4,1.7537000000000003
Li2VBO4,1.8957
Li2VBO4,2.1976999999999998
Li2VBO4,1.9704000000000002
Li2VBO4,2.3718
Li2VBO4,1.7394000000000003
Li2VBPO7,1.5137
Li2VCO5,1.6756000000000002
Li2VCO5,0.8902999999999999
Li2VCl4,1.1057999999999995
Li2VCo3O8,0.0
Li2VCo3O8,0.38180000000000014
Li2VCoO4,1.4038999999999997
Li2VCoO4,1.4746000000000006
Li2VCoO4,0.9225000000000003
Li2VCoO5,0.6293
Li2VCr(P2O7)2,2.1866
Li2VCr(P2O7)2,2.2571
Li2VCr(P2O7)2,2.1060999999999996
Li2VCr(P2O7)2,2.1997
Li2VCr(P2O7)2,2.1773999999999996
Li2VCr(P2O7)2,2.133
Li2VCr(P2O7)2,2.2926
Li2VCr(P2O7)2,1.7616
Li2VCr(P2O7)2,2.0869
Li2VCr(P2O7)2,2.1292
Li2VCr2O6,1.8001999999999998
Li2VCr2O6,1.3626
Li2VCr3O8,1.0533000000000001
Li2VCr3O8,1.1882000000000001
Li2VCr3O8,0.4628000000000001
Li2VCr3O8,0.7802000000000002
Li2VCrO4,1.1427
Li2VCrO4,1.1530999999999998
Li2VCrO4,1.3675000000000002
Li2VCrO4,1.7173999999999996
Li2VCrO4,1.5322
Li2VCrO4,1.7728000000000002
Li2VCrO4,0.6742000000000004
Li2VCrO4,0.45530000000000026
Li2VCrO4,0.6746999999999996
Li2VCrO4,1.5932999999999997
Li2VCrO4,0.9108999999999998
Li2VCrO4,1.5951000000000004
Li2VCrO4,1.3192
Li2VCrO4,1.3193000000000001
Li2VCrP2(HO5)2,2.2633
Li2VCrP2(HO5)2,2.1348999999999996
Li2VCrP2(HO5)2,1.9209
Li2VCrP2(HO5)2,0.0
Li2VCrP2(HO5)2,1.9830999999999999
Li2VCrP2(HO5)2,1.7900999999999998
Li2VCrP2(HO5)2,1.6957000000000004
Li2VCrP2(O4F)2,2.0572
Li2VCrP2(O4F)2,1.8744
Li2VCrP2(O4F)2,1.7907000000000002
Li2VCrP2(O4F)2,1.7942
Li2VCrP2(O4F)2,1.9782000000000002
Li2VCrP2(O4F)2,2.0338000000000003
Li2VCrS4,0.0
Li2VCu(PO4)2,0.0
Li2VF4,2.9512
Li2VF4,2.7764999999999995
Li2VF4,2.7462
Li2VF4,2.4755
Li2VF4,1.3747
Li2VF4,2.701
Li2VF4,2.8111
Li2VF4,2.6512000000000002
Li2VF4,2.7537000000000003
Li2VF4,2.7356000000000003
Li2VF4,0.31779999999999964
Li2VF4,2.7638
Li2VF4,2.4776999999999996
Li2VF5,2.2902
Li2VF5,0.0
Li2VF5,2.4523
Li2VF5,2.0219
Li2VF5,2.1785
Li2VF5,2.488
Li2VF5,2.3638000000000003
Li2VF5,2.447
Li2VF5,1.8209
Li2VF5,1.8007
Li2VF5,2.8520000000000003
Li2VF5,2.0328
Li2VF5,3.0374
Li2VF6,1.9112
Li2VF6,1.7644
Li2VF6,1.8411000000000002
Li2VF6,1.7323
Li2VF6,1.7858999999999998
Li2VF6,3.1618
Li2VF6,1.8047
Li2VF6,2.1121
Li2VF6,2.1976999999999998
Li2VF6,2.0805
Li2VF6,3.9372999999999996
Li2VF6,1.3538
Li2VF6,1.9707999999999999
Li2VF6,1.7970000000000002
Li2VF6,2.1057
Li2VF6,2.3686
Li2VF6,2.2836
Li2VF6,2.1149
Li2VF6,1.7724000000000002
Li2VF6,1.9566
Li2VF7,0.6601000000000001
Li2VF7,1.3491
Li2VFe(P2O7)2,1.8972000000000002
Li2VFe(P2O7)2,1.8187
Li2VFe(P2O7)2,1.8738000000000001
Li2VFe(P2O7)2,1.9038
Li2VFe(P2O7)2,1.3479
Li2VFe(P2O7)2,1.8512
Li2VFe(P2O7)2,0.0
Li2VFe(P2O7)2,1.7203999999999997
Li2VFe(P2O7)2,1.8138999999999998
Li2VFe(PO4)2,2.5591999999999997
Li2VFe3O8,1.4759000000000002
Li2VFe3O8,1.3184
Li2VFe3O8,0.5662000000000003
Li2VFe3O8,1.3039
Li2VFeO4,1.1175000000000002
Li2VFeO4,0.8325000000000005
Li2VFeO4,0.5595999999999997
Li2VFeO4,0.0
Li2VFeO4,0.7824999999999998
Li2VFeO5,1.6432000000000002
Li2VFeP2(HO5)2,1.7279
Li2VFeP2(HO5)2,1.7845
Li2VFeP2(HO5)2,1.7582999999999998
Li2VFeP2(HO5)2,1.8858000000000006
Li2VFeP2(HO5)2,1.7599
Li2VFeP2(HO5)2,0.4264000000000001
Li2VFeP2(HO5)2,1.4812000000000003
Li2VFeP2(HO5)2,1.646
Li2VFeP2(HO5)2,1.3668999999999998
Li2VFeP2(O4F)2,1.7344000000000002
Li2VFeP2(O4F)2,1.3679999999999999
Li2VFeP2(O4F)2,1.6052
Li2VFeP2(O4F)2,1.3746000000000003
Li2VFeP2(O4F)2,0.0
Li2VFeS4,0.0
Li2VGa3O8,1.9553
Li2VGa3O8,2.511
Li2VGaO4,1.3508999999999998
Li2VGeO5,0.0
Li2VH2OF5,2.5167
Li2VH2OF5,2.3994
Li2VN2,0.0
Li2VNi(PO4)2,1.1854000000000005
Li2VNiO4,1.513
Li2VNiO4,1.5773999999999995
Li2VNiO4,0.0
Li2VNiO4,1.2391000000000005
Li2VNiO4,1.2825999999999995
Li2VO2,1.6694000000000004
Li2VO2F,0.0
Li2VO2F,1.0331000000000001
Li2VO2F,0.08830000000000027
Li2VO2F,1.6802000000000001
Li2VO2F,1.3762999999999996
Li2VO2F,1.7354000000000003
Li2VO2F,0.12550000000000017
Li2VO2F,1.4776999999999996
Li2VO2F,1.2995999999999999
Li2VO2F,1.5731000000000002
Li2VO2F,1.0077000000000003
Li2VO2F,0.15229999999999988
Li2VO2F,1.3413999999999997
Li2VO2F,1.7955
Li2VO2F,0.9658999999999995
Li2VO2F,1.5531000000000006
Li2VO2F,0.9741
Li2VO2F,1.1294000000000004
Li2VO2F,1.3416000000000001
Li2VO2F,1.3341999999999996
Li2VO2F,1.408
Li2VO2F,0.9325000000000001
Li2VO2F,1.5641999999999996
Li2VO2F,1.3410000000000002
Li2VO2F,1.5680000000000005
Li2VO2F,1.1196000000000002
Li2VO2F,0.7241
Li2VO2F,1.0497999999999998
Li2VO2F,1.1219999999999999
Li2VO2F,0.9411
Li2VO2F,1.3484000000000003
Li2VO2F,1.0057
Li2VO2F,0.6738999999999997
Li2VO2F,0.27300000000000013
Li2VO2F,1.1166
Li2VO2F,0.3455999999999997
Li2VO2F,1.4806999999999997
Li2VO2F,1.1354000000000002
Li2VO2F,1.7347000000000001
Li2VO2F,1.5210000000000004
Li2VO2F,1.8142999999999998
Li2VO2F,1.0936
Li2VO2F,1.1311000000000004
Li2VO2F3,2.2520000000000002
Li2VO3,1.3261000000000003
Li2VO3,1.7996999999999996
Li2VO3F,2.2236000000000002
Li2VO3F,2.3227
Li2VO3F,2.213
Li2VO3F,2.2143
Li2VOF3,1.0771000000000002
Li2VOF3,1.7051
Li2VOF3,1.3647000000000002
Li2VOF3,1.8385
Li2VOF3,2.3625000000000003
Li2VOF3,1.3539999999999999
Li2VOF3,1.3650000000000002
Li2VOF4,1.8189
Li2VOF4,2.0491
Li2VOF4,2.0317
Li2VOF4,2.0690999999999997
Li2VOF4,0.8844
Li2VOF4,3.1186
Li2VOF4,1.5987
Li2VOF4,2.0956
Li2VOF4,2.4813
Li2VOF4,2.6196
Li2VOF4,2.2391
Li2VOF4,1.3292000000000002
Li2VOF5,3.2968
Li2VOF5,2.8337000000000003
Li2VOF5,2.7157999999999998
Li2VP2HO8,2.0854999999999997
Li2VP2HO8,2.1345
Li2VP2O7,2.9640000000000004
Li2VP2O7,2.9763
Li2VP2O7,0.03190000000000026
Li2VP2O7,2.8277
Li2VP2O7,2.5888999999999998
Li2VP2O7,2.7579000000000002
Li2VP2O7,2.5694000000000004
Li2VP2O7,2.9218999999999995
Li2VP2O7,0.0
Li2VP2O7,2.3214999999999995
Li2VP3O10,2.1159
Li2VP3O10,3.4028
Li2VP4(H2O3)6,2.6006
Li2VP4(H4O5)4,1.8897
Li2VP4(HO2)8,2.3981
Li2VP4O13,1.8286
Li2VPCO7,1.7576
Li2VPCO7,1.9668999999999999
Li2VPHO5,2.6224
Li2VPHO5,1.4109999999999996
Li2VPO4F,3.0226
Li2VPO4F,2.3950000000000005
Li2VPO4F,1.1109999999999998
Li2VPO4F,2.4724
Li2VPO4F,2.4164000000000003
Li2VPO4F,1.2128000000000005
Li2VPO5,1.4956999999999998
Li2VPO5,1.5391999999999997
Li2VPO5,1.2372999999999998
Li2VPO5,0.8682000000000003
Li2VPO6,2.8096
Li2VSO4F3,2.237
Li2VSi2O7,1.4198
Li2VSi2O7,1.3048000000000002
Li2VSi3O8,2.766300000000001
Li2VSi4O11,1.9445
Li2VSi4O11,0.9102999999999999
Li2VSi7O16,1.2348
Li2VSiCO7,1.8635000000000002
Li2VSiCO7,1.7424000000000002
Li2VSiO4,1.75
Li2VSiO4,1.7175000000000002
Li2VSiO4,1.255
Li2VSiO4,1.6609999999999996
Li2VSiO5,2.3621
Li2VSiO5,1.9540999999999995
Li2VSiO5,1.3138
Li2VSn(PO4)2,2.3648999999999996
Li2W(OF2)2,3.7916000000000003
Li2W2O7,3.7559
Li2W2O7,3.3026999999999997
Li2WO4,4.877
Li2WO4,3.9258
Li2WO4,3.7185000000000006
Li2WS4,1.9870999999999999
Li2WS4,1.4184
Li2WS4,1.9131
Li2Y14Ti14(S2O5)7,0.0
Li2Y5In9,0.0
Li2YAl,0.00010000000000021103
Li2YIn,0.04789999999999983
Li2YPCO7,4.8307
Li2YTl,0.0
Li2Zn2(MoO4)3,3.1374
Li2Zn2W2O9,2.7668999999999997
Li2Zn3(Ge3O8)2,2.7137000000000002
Li2ZnAu,0.0
Li2ZnBr4,3.777
Li2ZnCdP2,1.0652
Li2ZnCl4,4.1422
Li2ZnCl4,4.6751000000000005
Li2ZnCr3(SO4)6,0.7164000000000001
Li2ZnCu3,0.0
Li2ZnFe(PO4)2,3.4097000000000004
Li2ZnGe,0.0
Li2ZnGe3,0.0
Li2ZnGeO4,3.1053
Li2ZnGeS4,2.1846
Li2ZnI4,3.1982
Li2ZnPb,0.0
Li2ZnSb,0.0
Li2ZnSi,0.0
Li2ZnSiO4,3.6329999999999996
Li2ZnSn,0.0
Li2ZnSn3O8,1.9407
Li2ZnSnS4,2.3137
Li2Zr2(PO4)3,0.0
Li2Zr2O5,3.8449
Li2Zr2O5,3.3803
Li2Zr2O5,3.6229999999999998
Li2Zr4As3(PO8)3,3.7144999999999997
Li2Zr4As3(PO8)3,3.9866
Li2Zr6MnCl15,1.1644
Li2Zr7Fe(PO4)12,0.0
Li2ZrCuO4,0.0
Li2ZrF6,6.477399999999999
Li2ZrF6,6.0773
Li2ZrF6,5.481199999999999
Li2ZrFe(PO4)3,1.8317
Li2ZrFe(PO4)3,2.4566
Li2ZrN2,1.5618999999999996
Li2ZrO3,3.7336
Li2ZrTeO6,2.7792
Li3(CoO2)4,0.0
Li3(CoO2)4,0.4819
Li3(CoO2)4,1.2833
Li3(CoO2)4,0.782
Li3(CoO2)5,0.0
Li3(CoS2)4,0.0
Li3(CrS2)4,0.0
Li3(CuO)4,0.0
Li3(CuO2)2,0.0
Li3(Fe2S3)2,0.0
Li3(FeO2)4,0.0
Li3(FeO2)4,0.6909999999999998
Li3(FeO2)4,0.2439
Li3(FeO2)5,0.4722999999999997
Li3(FeO3)2,0.2680999999999999
Li3(FeO3)2,0.0
Li3(FeO3)2,0.38770000000000004
Li3(FeS2)2,0.0
Li3(HN)2,0.0
Li3(Mg2Si)4,0.0
Li3(Mo3S4)2,0.0
Li3(Nb2Cl5)8,0.03100000000000014
Li3(NiO2)4,0.0
Li3(NiO2)4,0.242
Li3(NiO2)4,0.030100000000000016
Li3(NiO2)5,0.3803000000000001
Li3(NiO2)5,0.0
Li3(NiO2)8,0.0
Li3(VS2)4,0.0
Li3(WO3)8,0.0
Li3(ZnSn2)2,0.0
Li31Zr2As13,0.0
Li31Zr2P13,0.0
Li31Zr2Sb13,0.0
Li32Mn11Cr5O48,0.0
Li32Mn11Cr5O48,1.1768
Li32Mn11Cr5O48,1.0094000000000003
Li32Mn11Cr5O48,1.0191999999999999
Li32Mn11Cr5O48,1.1614
Li32Mn13Cr3O48,1.3745
Li32Mn13Cr3O48,1.3133000000000001
Li32Mn13Cr3O48,1.1929
Li32Mn13Cr3O48,1.2042000000000002
Li32Mn13Cr3O48,1.3448999999999998
Li32Mn13Cr3O48,1.2541000000000002
Li32Mn13Cr3O48,1.2401000000000002
Li32Mn13Cr3O48,1.2155
Li32Mn13Cr3O48,1.0171
Li32Mn13Cr3O48,1.2035
Li32Mn3Cr13O48,0.9846999999999997
Li32Mn3Cr13O48,1.0413999999999999
Li32Mn3Cr13O48,0.9811000000000001
Li32Mn3Cr13O48,1.0329000000000002
Li32Mn3Cr13O48,0.9956999999999998
Li32Mn3Cr13O48,0.8376999999999999
Li32Mn3Cr13O48,0.9782000000000002
Li32Mn3Cr13O48,0.9788999999999999
Li32Mn3Cr13O48,1.0174999999999996
Li32Mn3Cr13O48,1.0333999999999999
Li32Mn5Cr11O48,0.009600000000000275
Li32Mn5Cr11O48,0.4636
Li32Mn5Cr11O48,0.5009000000000001
Li32Mn5Cr11O48,0.0
Li32Ti11Cr5O48,1.1754000000000002
Li32Ti11Cr5O48,0.0
Li32Ti13Cr3O48,1.4324999999999999
Li32Ti13Cr3O48,1.5290000000000001
Li32Ti13Cr3O48,1.5932000000000002
Li32Ti13Cr3O48,1.2869000000000002
Li32Ti13Cr3O48,1.4038
Li32Ti13Cr3O48,1.4592
Li32Ti13Cr3O48,1.3658000000000001
Li32Ti3Cr13O48,1.1293000000000002
Li32Ti3Cr13O48,0.9361999999999999
Li32Ti3Cr13O48,1.1043000000000003
Li32Ti3Cr13O48,1.1183999999999998
Li32Ti3Cr13O48,1.0789
Li32Ti3Cr13O48,1.0460000000000003
Li32Ti3Cr13O48,1.0519000000000003
Li32Ti3Cr13O48,0.9914000000000001
Li32Ti3Cr13O48,0.9586999999999999
Li32Ti3Cr13O48,1.0615999999999999
Li32Ti5Cr11O48,0.8324000000000003
Li32Ti5Cr11O48,0.8551000000000002
Li34(Sb3S2)3,0.0
Li34(YSb2)13,0.0
Li34Sb8S7,0.0
Li35(FeO4)8,0.06539999999999999
Li35(RuO4)12,0.0
Li3Ac,0.0
Li3Ag,0.0
Li3Ag2,0.0
Li3Ag2F5,1.5188
Li3Ag2Ge3,0.0
Li3Ag3Ge2,0.0
Li3Ag3Sn2,0.0
Li3AgF4,2.1989
Li3Al,0.0
Li3Al(BO3)2,4.8643
Li3Al(BO3)2,4.593699999999999
Li3Al(BO3)2,4.8248
Li3Al(CoO3)2,0.8599000000000001
Li3Al(FeO3)2,2.1557000000000004
Li3Al(FeO3)2,1.9011
Li3Al2,0.0
Li3Al2CoO6,0.8567999999999998
Li3Al2CoO6,0.8303000000000003
Li3Al2CrO6,3.5086000000000004
Li3Al2FeO6,1.8725999999999998
Li3Al2FeO6,2.6281000000000003
Li3Al2FeO6,2.4021
Li3Al2VO6,1.7569
Li3Al2VO6,1.9332000000000003
Li3Al2VO6,1.911
Li3Al3P3H2O14F,5.7714
Li3AlCoO4,1.7269
Li3AlCrO5,1.7516999999999998
Li3AlF6,6.505599999999999
Li3AlF6,7.688400000000001
Li3AlF6,7.915100000000001
Li3AlFeO4,2.4242
Li3AlFeO5,0.0
Li3AlGeO5,3.9691999999999994
Li3AlH6,3.5929
Li3AlMo2(AsO7)2,2.8901
Li3AlN2,2.9371
Li3AlNiO4,2.4289000000000005
Li3AlSiO5,4.4558
Li3As,0.36939999999999995
Li3As,0.6364999999999998
Li3As7,1.3268999999999997
Li3As7(H3N)13,1.8068000000000002
Li3AsF6,3.8182
Li3AsH16(SO2)4,2.3283
Li3AsH36(SeN3)4,1.8941
Li3AsO4,4.1528
Li3AsO4,4.1268
Li3AsS3,2.2848999999999995
Li3Au,0.0
Li3AuO3,1.8710999999999998
Li3AuS2,2.0985
Li3B(PO4)2,6.1272
Li3B11O18,5.5447
Li3B2SbO6,2.5767999999999995
Li3B2SbO6,2.5730999999999997
Li3B2SbO6,2.7455
Li3B3(H8N)2,5.961
Li3B5(HO5)2,5.833799999999999
Li3B5(HO5)2,5.8854
Li3B7O12,5.6047
Li3B8O15,0.02279999999999993
Li3BN2,3.2057999999999995
Li3BN2,3.3011
Li3BN2,3.4547999999999996
Li3BO3,5.1473
Li3BS3,3.0495
Li3BePCO7,5.2857
Li3BePCO7,5.4524
Li3Bi,0.34289999999999976
Li3Bi,0.4030999999999998
Li3Bi(BO3)2,2.5439
Li3Bi(BO3)2,3.0051
Li3Bi(BO3)2,3.66
Li3Bi(BO3)2,3.2588999999999997
Li3Bi(BO3)2,2.9994
Li3Bi(BO3)2,3.2169
Li3Bi(BO3)2,2.9356999999999998
Li3Bi(PO4)2,3.8058
Li3Bi(PO4)2,3.6540999999999997
Li3Bi(PO4)2,3.7454
Li3Bi(PO4)2,3.6108
Li3Bi(PO4)2,3.1798
Li3Bi(PO4)2,3.5843
Li3Bi(PO4)2,4.040900000000001
Li3Bi(PO4)2,3.8292
Li3Bi2(BO3)3,3.2060000000000004
Li3Bi2(PO4)3,3.7495
Li3Bi2(PO4)3,3.7569999999999997
Li3Bi2(PO4)3,4.0258
Li3Bi2(PO4)3,3.8832000000000004
Li3Bi2(PO4)3,3.5627000000000004
Li3Bi2(PO4)3,3.1674999999999995
Li3Bi2(PO4)3,2.7433
Li3Bi2(PO4)3,3.5439
Li3Bi2(PO4)3,4.1065
Li3Bi2P5O18,0.2165999999999999
Li3Bi3(PO4)4,3.3336000000000006
Li3Bi3(PO4)4,2.9071
Li3Bi3P8O29,0.0
Li3Bi3P8O29,0.5346
Li3Bi3P8O29,0.5062
Li3Bi5(PO4)6,4.0023
Li3BiB4O9,3.6483
Li3BiB8O15,4.0047999999999995
Li3BiF6,4.3416999999999994
Li3BiH8O7,4.0181
Li3BiO3,2.4379
Li3BiO3,2.7248
Li3BiO3,2.4847
Li3BiO3,2.5101999999999998
Li3BiO4,1.0578999999999996
Li3BiO4,0.9495
Li3BiO4,1.3994999999999997
Li3BiS3,1.9787000000000001
Li3BiS3,0.9889999999999999
Li3BiS3,1.9803999999999995
Li3BiS3,2.558
Li3BiS3,2.4456999999999995
Li3BiS3,1.7663
Li3BiS3,1.9514
Li3BiS4,1.6645
Li3BrO,4.277500000000001