formula,band_gap
Li3Mn2O5,1.3744999999999998
Li3Mn2O5,1.0029000000000003
Li3Mn2O5,1.165
Li3Mn2O5,0.9598
Li3Mn2O5,0.8235999999999999
Li3Mn2O5,0.6688000000000001
Li3Mn2O5,0.9436999999999998
Li3Mn2O5,1.0038
Li3Mn2O5,0.266
Li3Mn2O5,0.0
Li3Mn2O5,1.0610999999999997
Li3Mn2OF5,1.9747
Li3Mn2P2(CO7)2,0.6622
Li3Mn2P2(CO7)2,0.0
Li3Mn2P2(CO7)2,0.24419999999999997
Li3Mn2P2(CO7)2,0.244
Li3Mn2P2(CO7)2,0.7395
Li3Mn2P2(CO7)2,0.24580000000000002
Li3Mn2P2(O4F)2,0.24719999999999986
Li3Mn2P2O8F3,0.0
Li3Mn2P4HO14,0.20709999999999962
Li3Mn2P5O16,3.9853000000000005
Li3Mn2SbO6,0.2923
Li3Mn2SnO6,0.8304
Li3Mn2SnO6,0.7559999999999993
Li3Mn2SnO6,0.0
Li3Mn2V3O12,1.0554999999999999
Li3Mn2V5O12,0.2513000000000001
Li3Mn2VO6,0.2576
Li3Mn3(BO3)4,0.4958
Li3Mn3(FeO5)2,0.5642999999999998
Li3Mn3(OF)4,0.5171999999999999
Li3Mn3(PO4)4,0.8884
Li3Mn3(PO4)4,0.7371000000000001
Li3Mn3(PO4)4,1.0226
Li3Mn3(PO4)4,0.6178999999999999
Li3Mn3(PO4)4,0.7289000000000001
Li3Mn3(PO4)4,0.3909
Li3Mn3(PO4)4,0.6397999999999999
Li3Mn3(PO4)4,1.1330999999999998
Li3Mn3(PO4)4,0.24589999999999979
Li3Mn3(PO4)4,0.901
Li3Mn3(PO4)4,0.8985000000000001
Li3Mn3(PO4)4,0.4937
Li3Mn3CoO8,0.6079000000000003
Li3Mn3CoO8,0.45840000000000014
Li3Mn3CoO8,0.5920999999999998
Li3Mn3CoO8,0.6854
Li3Mn3CoO8,0.0
Li3Mn3CrO8,0.23760000000000003
Li3Mn3CrO8,0.2604000000000002
Li3Mn3FeO8,0.2700999999999998
Li3Mn3FeO8,0.0
Li3Mn3FeO8,0.4658000000000002
Li3Mn3NiO8,0.0
Li3Mn3O3F5,0.25519999999999987
Li3Mn3O5F3,0.5133999999999999
Li3Mn3O8,0.0
Li3Mn3OF7,2.2852
Li3Mn3P8O29,0.0
Li3Mn3SbO8,0.0
Li3Mn3SiO8,0.9150000000000005
Li3Mn3TeO8,0.21389999999999976
Li3Mn3TeO8,0.7228999999999997
Li3Mn3TeO8,0.6681999999999997
Li3Mn3TeO8,0.6948000000000003
Li3Mn3TeO8,0.4458000000000002
Li3Mn3TeO8,0.0
Li3Mn3WO8,0.0
Li3Mn4(BO3)4,0.0
Li3Mn4(BO3)4,0.5006999999999999
Li3Mn4(BO3)4,3.2093
Li3Mn4(BO3)4,0.04989999999999983
Li3Mn4(BO3)4,0.3217000000000003
Li3Mn4(BO3)4,0.4278000000000002
Li3Mn4(BO3)4,0.20970000000000022
Li3Mn4(BO3)4,0.36729999999999996
Li3Mn4(BO3)4,0.2843000000000002
Li3Mn4(BO3)4,0.24930000000000008
Li3Mn4(BO3)4,0.5298
Li3Mn4(BO3)4,0.2851999999999999
Li3Mn4(BO3)4,0.35540000000000016
Li3Mn4(BO3)4,0.7077
Li3Mn4(BO3)4,0.24560000000000004
Li3Mn4(BO3)4,0.31940000000000013
Li3Mn4(BO3)4,2.966
Li3Mn4(BO3)4,0.6231000000000002
Li3Mn4(BO3)4,0.2981999999999998
Li3Mn4(BO3)4,0.2474000000000003
Li3Mn4(BO3)4,0.4289999999999998
Li3Mn4(FeO6)2,0.0
Li3Mn4(P2O7)4,0.0
Li3Mn4(P2O7)4,0.029000000000000026
Li3Mn4(P2O7)4,0.00990000000000002
Li3Mn4(P2O7)4,0.03100000000000014
Li3Mn4(P2O7)4,0.0026999999999999247
Li3Mn4(PO4)6,0.0
Li3Mn4(PO4)6,0.3498000000000001
Li3Mn4(PO4)6,0.42789999999999995
Li3Mn4(PO4)6,0.03909999999999991
Li3Mn4CoO8,0.0
Li3Mn4CrO8,0.0
Li3Mn4CuO8,0.0
Li3Mn4F15,0.0
Li3Mn4F19,1.0555
Li3Mn4FeO8,0.0
Li3Mn4NiO8,0.0
Li3Mn4O8,0.0
Li3Mn4O8,0.4809000000000001
Li3Mn4O8,0.2700999999999998
Li3Mn4O8,0.36319999999999997
Li3Mn4O8,0.2524000000000002
Li3Mn4O8,0.4203000000000001
Li3Mn4O8,0.5399999999999996
Li3Mn4O8,0.5101
Li3Mn4O8,0.5093000000000001
Li3Mn4P3H12O19,2.5572
Li3Mn4SbO8,0.0
Li3Mn4SnO8,0.0
Li3Mn4VO8,0.0
Li3Mn5(CoO6)2,0.0
Li3Mn5(CuO6)2,0.0
Li3Mn5(FeO6)2,0.1477999999999997
Li3Mn5(NiO6)2,0.0
Li3Mn5(PO4)6,0.2808999999999999
Li3Mn5Cr2O12,0.05410000000000004
Li3Mn5Cr3O16,1.3377999999999999
Li3Mn5F15,0.0
Li3Mn5FeO12,0.0
Li3Mn5O10,0.25649999999999995
Li3Mn5O2F9,1.5145
Li3Mn5O8,0.0
Li3Mn5OF11,2.0534999999999997
Li3Mn5OF11,2.2314
Li3Mn7O12,0.03180000000000005
Li3Mn7O16,0.0
Li3Mn8(OF3)4,0.7559
Li3Mn8(OF3)4,2.5292999999999997
Li3Mn8O16,0.0
Li3MnAl2O6,1.9170999999999998
Li3MnAl2O6,1.2006000000000001
Li3MnAl2O6,1.4500000000000002
Li3MnAlO4,0.8266999999999998
Li3MnAs2,0.0
Li3MnAsCO7,2.1045999999999996
Li3MnB4O9,0.4887999999999999
Li3MnB6O13,1.9312
Li3MnB8O15,1.3799000000000001
Li3MnBAsO7,0.9886999999999999
Li3MnBPO7,1.1598000000000002
Li3MnCo3O8,0.5491000000000001
Li3MnCo3O8,0.22630000000000017
Li3MnCo3O8,0.30969999999999986
Li3MnCo3O8,0.5106000000000002
Li3MnCo3O8,0.015000000000000124
Li3MnCo3O8,0.07050000000000001
Li3MnCo3O8,0.3296999999999999
Li3MnCo3O8,0.0
Li3MnCoNiO6,1.1081000000000003
Li3MnCoO5,1.6718000000000002
Li3MnCoO5,0.08099999999999996
Li3MnCoO5,0.0
Li3MnCoO5,1.7259000000000002
Li3MnCoO5,0.06410000000000027
Li3MnCoO5,1.6462
Li3MnCoO5,0.2017000000000002
Li3MnCoO5,0.5160999999999998
Li3MnCoO5,1.0589
Li3MnCoO5,1.0549
Li3MnCoO5,0.07430000000000003
Li3MnCoO5,1.0015
Li3MnCoO5,0.17910000000000004
Li3MnCoO5,1.0711
Li3MnCoO5,1.6399
Li3MnCoO5,0.0686
Li3MnCoO5,0.9135
Li3MnCoO5,0.4277000000000002
Li3MnCoO5,0.16920000000000002
Li3MnCoO5,1.6725999999999999
Li3MnCoO5,0.6496
Li3MnCoO5,0.9613
Li3MnCoO5,1.6652
Li3MnCoO5,0.17090000000000005
Li3MnCoO5,0.2133999999999996
Li3MnCoO5,0.9660000000000002
Li3MnCoO5,1.6226
Li3MnCoO5,1.049
Li3MnCoO5,0.5210999999999997
Li3MnCoO5,0.9888000000000003
Li3MnCoO5,0.027900000000000258
Li3MnCoO5,0.13019999999999987
Li3MnCoO5,0.27570000000000006
Li3MnCoO5,0.6595
Li3MnCoO5,0.17769999999999975
Li3MnCoO5,1.1554000000000002
Li3MnCoO5,0.5758000000000001
Li3MnCoO5,0.22809999999999997
Li3MnCoO5,0.12700000000000022
Li3MnCoO5,0.32010000000000005
Li3MnCoO5,0.2067000000000001
Li3MnCoO5,0.14760000000000018
Li3MnCoO5,0.3703000000000003
Li3MnCr2O6,0.2562000000000002
Li3MnCr3O8,1.7173000000000003
Li3MnCr3O8,0.25760000000000005
Li3MnCr4O8,0.2466999999999997
Li3MnCu3O8,0.044399999999999995
Li3MnF5,3.617
Li3MnF5,3.6318
Li3MnF5,4.7264
Li3MnF5,3.9245
Li3MnF5,4.3604
Li3MnF5,2.6548
Li3MnF6,1.8519999999999999
Li3MnF6,1.0121
Li3MnF6,1.2883
Li3MnF6,0.2016
Li3MnF6,1.7228999999999999
Li3MnF6,1.5801
Li3MnF6,1.6087
Li3MnF7,1.2844
Li3MnF7,1.4076999999999997
Li3MnFe2(BO3)3,2.7735000000000003
Li3MnFe2(BO3)3,2.8263
Li3MnFe2(BO3)3,2.7129999999999996
Li3MnFe2(BO3)3,2.7431
Li3MnFe2(BO3)3,2.7981
Li3MnFe2(BO3)3,2.7535
Li3MnFe2(BO3)3,2.7702999999999998
Li3MnFe2(BO3)3,2.7687999999999997
Li3MnFe2(BO3)3,3.1966
Li3MnFe2(BO3)3,2.8421
Li3MnFe3O8,0.0
Li3MnFe3O8,1.4038
Li3MnFe3O8,1.5508000000000002
Li3MnFeCo(PO4)3,2.2098999999999998
Li3MnFeCo(PO4)3,2.4137000000000004
Li3MnFeCo(PO4)3,2.3362
Li3MnFeCo(PO4)3,2.4485999999999994
Li3MnFeCo(PO4)3,2.1681000000000004
Li3MnFeCo(PO4)3,2.4151
Li3MnFeCo(PO4)3,1.8256000000000001
Li3MnFeCo(PO4)3,2.2514999999999996
Li3MnFeCo(PO4)3,1.9995000000000003
Li3MnFeCo(PO4)3,2.2194
Li3MnFeCo(PO4)3,2.0843000000000003
Li3MnFeCo(PO4)3,1.3838999999999997
Li3MnFeCo(PO4)3,2.0732000000000004
Li3MnFeCo(PO4)3,2.0595000000000003
Li3MnFeCo(PO4)3,2.0075999999999996
Li3MnN2,0.08939999999999992
Li3MnN2,0.0
Li3MnNb4O12,0.0
Li3MnNi3O8,0.0
Li3MnO2F,0.6114999999999999
Li3MnO2F,1.8572
Li3MnO3,2.2384
Li3MnO3,1.3918
Li3MnO3,0.7440999999999998
Li3MnO4,0.0
Li3MnOF3,2.1946000000000003
Li3MnOF4,2.0076
Li3MnOF4,0.7405
Li3MnP2,0.0
Li3MnP2(O3F2)2,1.7453
Li3MnP2H2O9,0.8976
Li3MnP2HO8,4.417
Li3MnP2HO8,4.1739999999999995
Li4Bi2O5,2.7704
Li4Bi2S7,0.9856000000000003
Li4Bi3O8,0.0
Li4CO4,6.1296
Li4CO4,4.0021
Li4CO4,4.2363
Li4CO4,4.7839
Li4CO4,5.8749
Li4CO4,5.0391
Li4CO4,3.9008000000000003
Li4CO4,4.6576
Li4CO4,4.8096
Li4CO4,6.1136
Li4CO4,6.072799999999999
Li4CO4,5.351
Li4CO4,5.5672999999999995
Li4CO4,5.2217
Li4Ca(BO3)2,4.7254
Li4Ca2B16(H2O5)7,5.1414
Li4Ca2Mg(SiN3)2,3.0547
Li4Ca3(SiN3)2,2.2904
Li4Ca3Nb6O20,1.3259999999999998
Li4CaB10(HO5)4,4.884799999999999
Li4CaNiO4,2.3519000000000005
Li4Ce3Ge4,0.0
Li4Co(BO3)2,3.0153999999999996
Li4Co(OF)2,1.5844
Li4Co(PO4)2,3.2951
Li4Co(PO4)2,2.8352
Li4Co(SiO3)3,2.6691
Li4Co13O28,0.23399999999999999
Li4Co13O28,0.23360000000000003
Li4Co15O28,0.02859999999999996
Li4Co2(PO4)3,0.41159999999999997
Li4Co2(PO4)3,0.0040000000000000036
Li4Co2C4SO16,0.0
Li4Co2C4SO16,0.06580000000000008
Li4Co2C4SO16,0.0041999999999999815
Li4Co2Cu3Sb3O16,0.0
Li4Co2Ni3O10,0.0
Li4Co2Ni3Sn(PO4)6,2.5987000000000005
Li4Co2Ni5O12,0.0045999999999999375
Li4Co2OF7,1.3216999999999999
Li4Co2OF7,1.3944
Li4Co2OF7,1.3677000000000001
Li4Co2OF7,1.4085999999999999
Li4Co2OF7,0.9131
Li4Co2Si3O10,2.6211
Li4Co3(NiO4)3,0.0
Li4Co3(OF3)2,2.5015
Li4Co3Cu2Sb3O16,0.0
Li4Co3Cu3(TeO8)2,0.0
Li4Co3Cu3(WO8)2,0.0
Li4Co3CuO8,0.0
Li4Co3Ni(PO4)4,2.5693
Li4Co3Ni2Sb3O16,0.0
Li4Co3Ni2Sn3O16,0.3062
Li4Co3Ni3(PO4)6,0.0
Li4Co3Ni3(SbO8)2,0.0
Li4Co3Ni3(SnO8)2,0.0
Li4Co3Ni3(TeO8)2,0.0
Li4Co3Ni3(WO8)2,0.0019000000000000128
Li4Co3Ni5O16,0.3219000000000003
Li4Co3NiO8,0.08800000000000008
Li4Co3NiO8,0.7441
Li4Co3NiO8,0.0
Li4Co3NiO8,0.4466999999999999
Li4Co3O3F4,0.0
Li4Co3O7,0.0
Li4Co3O7,0.7812000000000001
Li4Co3O7,0.49150000000000027
Li4Co3O7,0.512
Li4Co3O7,0.0036999999999998145
Li4Co3O7,0.009500000000000064
Li4Co3O7,0.2864
Li4Co3O7,0.3229000000000002
Li4Co3O7,0.5083000000000002
Li4Co3O7,0.4573999999999998
Li4Co3O7,0.7689000000000004
Li4Co3O7,0.30169999999999986
Li4Co3O7,0.7452999999999999
Li4Co3O7,0.5736000000000003
Li4Co3O7,0.238
Li4Co3O7,0.28759999999999986
Li4Co3OF11,0.6954
Li4Co3OF11,0.6618999999999999
Li4Co3OF8,1.6506999999999998
Li4Co3P4(H3O4)6,2.9627
Li4Co3P4O15,2.8956
Li4Co3Sb5O16,0.8189000000000002
Li4Co3Sb5O16,0.7788000000000004
Li4Co3Sb5O16,0.3674999999999997
Li4Co3Sb5O16,0.3754999999999997
Li4Co3Sb5O16,0.0
Li4Co3SbO8,0.0
Li4Co3Sn(PO4)4,1.529
Li4Co3Sn2Sb3O16,0.0
Li4Co3Sn3(SbO8)2,0.375
Li4Co3Sn5O16,0.9368999999999996
Li4Co3Sn5O16,0.027300000000000324
Li4Co3Sn5O16,0.7703999999999995
Li4Co3Sn5O16,0.49960000000000004
Li4Co3Sn5O16,0.5381
Li4Co3TeO8,0.7389999999999999
Li4Co3WO8,1.6459999999999995
Li4Co4(OF3)3,0.3823
Li4Co5(P3O11)2,1.5374000000000003
Li4Co5CuO12,0.07779999999999987
Li4Co5Ni3O16,0.0
Li4Co5NiO12,0.06269999999999998
Li4Co5NiO12,0.04800000000000004
Li4Co5NiO12,0.0
Li4Co5O12,0.0
Li4Co5O12,0.01870000000000016
Li4Co5O9F,1.1535000000000002
Li4Co5O9F,0.0
Li4Co5Sb3O16,0.0
Li4Co5SbO12,0.0
Li4Co5SnO12,0.16420000000000012
Li4Co5SnO12,0.21609999999999996
Li4Co5SnO12,0.7200000000000002
Li4Co5SnO12,0.0
Li4Co5SnO12,0.03980000000000006
Li4Co5SnO12,0.14259999999999984
Li4Co5Te3O16,0.0
Li4Co7(OF7)2,2.1384
Li4Co7(OF7)2,2.0283
Li4Co7(OF7)2,2.0318
Li4Co7O16,0.03990000000000005
Li4Co7O3F13,0.22329999999999994
Li4CoCu3(PO4)4,0.0
Li4CoNi3(PO4)4,2.4087000000000005
Li4CoNi3O8,0.07279999999999998
Li4CoNi5(PO4)6,1.2129999999999996
Li4CoNi5O12,0.0
Li4CoO3,2.4108
Li4CoO3F,1.5433999999999999
Li4CoO3F,1.3648
Li4CoO4,0.9940999999999999
Li4CoO4,0.6640999999999999
Li4CoO4,0.0
Li4CoO4,1.2373
Li4CoO4,0.88
Li4CoO4,0.8803000000000001
Li4CoOF4,0.017400000000000304
Li4CoOF5,0.0
Li4CoOF5,0.5325
Li4CoRuO6,0.6254999999999997
Li4CoSn3(PO4)4,1.8892999999999995
Li4CoTeO6,2.3692
Li4Cr(PO4)2,3.2317
Li4Cr(PO4)2,1.4268
Li4Cr(PO4)3,1.3127000000000002
Li4Cr(TeO4)3,0.0
Li4Cr(WO4)3,2.2378
Li4Cr(WO4)3,1.3714000000000004
Li4Cr2(PO4)3,0.8370000000000002
Li4Cr2(PO4)3,1.3157
Li4Cr2C4SO16,0.8746999999999998
Li4Cr2C4SO16,2.0016
Li4Cr2Co3Sb3O16,0.22280000000000033
Li4Cr2Co3Sn3O16,0.0
Li4Cr2Fe3Co3O16,0.0
Li4Cr2Fe3O10,0.5678999999999998
Li4Cr2Fe3Sb3O16,0.5442999999999998
Li4Cr2Fe3Sn3O16,0.0
Li4Cr2Fe5O12,0.8658000000000001
Li4Cr2Ni3Sb3O16,0.05250000000000021
Li4Cr2Ni3Sn(PO4)6,1.4918
Li4Cr2Ni3Te3O16,0.6059000000000001
Li4Cr2Ni5O12,0.0
Li4Cr2P4H3O16,0.9188000000000001
Li4Cr2Si3O10,2.3486
Li4Cr2Si4O13,3.0944
Li4Cr2TeWO12,0.6551
Li4Cr3(CO3)6,0.6537999999999999
Li4Cr3(CoO4)3,0.4697
Li4Cr3(FeO4)3,0.12799999999999967
Li4Cr3(FeO4)3,0.0
Li4Cr3Co(PO4)4,0.21789999999999932
Li4Cr3Co2Sb3O16,0.22330000000000005
Li4Cr3Co2Sn3O16,0.0867
Li4Cr3Co2Sn3O16,0.0
Li4Cr3Co3(NiO8)2,0.6257999999999999
Li4Cr3Co3(SbO8)2,0.0
Li4Cr3Co3(SnO8)2,0.07759999999999989
Li4Cr3Co3(SnO8)2,0.0
Li4Cr3Co3(TeO8)2,0.0
Li4Cr3Co3(WO8)2,0.0
Li4Cr3Co5O16,0.0
Li4Cr3CoO8,1.7071999999999998
Li4Cr3CoO8,0.3054999999999999
Li4Cr3CoO8,1.936
Li4Cr3CoO8,1.7527999999999997
Li4Cr3CoO8,1.6271000000000004
Li4Cr3CoO8,0.46579999999999977
Li4Cr3CoO8,0.5846999999999998
Li4Cr3CoO8,0.8529
Li4Cr3CoO8,0.8301000000000003
Li4Cr3CoO8,0.8600999999999996
Li4Cr3CoO8,0.8064
Li4Cr3CoO8,0.0
Li4Cr3CoO8,0.46950000000000003
Li4Cr3CoO8,0.5942999999999996
Li4Cr3Fe2Co3O16,0.6847000000000003
Li4Cr3Fe2Co3O16,0.0
Li4Cr3Fe2Sb3O16,0.5283999999999995
Li4Cr3Fe2Sn3O16,0.2814000000000001
Li4Cr3Fe3(SbO8)2,1.3934000000000002
Li4Cr3Fe3(SnO8)2,0.0
Li4Cr3Fe3(TeO8)2,0.0015999999999998238
Li4Cr3Fe3(WO8)2,1.1364999999999998
Li4Cr3Fe5O16,0.0
Li4Cr3FeO8,2.1601
Li4Cr3FeO8,1.9622000000000006
Li4Cr3FeO8,1.9624000000000001
Li4Cr3FeO8,1.9626000000000001
Li4Cr3FeO8,1.6896
Li4Cr3FeO8,1.9676000000000005
Li4Cr3FeO8,1.9598000000000004
Li4Cr3FeO8,1.9602000000000004
Li4Cr3FeO8,1.9686999999999997
Li4Cr3FeO8,1.7827000000000006
Li4Cr3FeO8,2.1696999999999997
Li4Cr3GaO8,3.0366
Li4Cr3GaO8,2.9587
Li4Cr3GaO8,3.0916
Li4Cr3GaO8,2.7562999999999995
Li4Cr3GaO8,3.1165999999999996
Li4Cr3GaO8,3.0726999999999998
Li4Cr3GaO8,2.9899
Li4Cr3GaO8,3.1494
Li4Cr3GaO8,2.7652
Li4Cr3Ni(PO4)4,1.1917
Li4Cr3Ni2Sb3O16,0.2989999999999995
Li4Cr3Ni2Sn3O16,0.3066
Li4Cr3Ni3(SbO8)2,0.0
Li4Cr3Ni3(SnO8)2,0.0
Li4Cr3Ni3(TeO8)2,0.0
Li4Cr3Ni3(WO8)2,0.0
Li4Cr3NiO8,0.0
Li4Cr3NiO8,0.4121999999999999
Li4Cr3NiO8,0.4365999999999999
Li4Cr3O8,0.24109999999999987
Li4Cr3P4O15,2.6174
Li4Cr3Sn3(SbO8)2,0.0
Li4Cr3Sn3(TeO8)2,0.8853
Li4Cr3Sn5O16,0.0
Li4Cr5(P3O11)2,1.9217
Li4Cr5BiO12,0.0
Li4Cr5Co3O16,0.02159999999999984
Li4Cr5Co3O16,0.0472999999999999
Li4Cr5Fe3O16,0.0
Li4Cr5FeO12,0.021399999999999864
Li4Cr5O10,0.0
Li4Cr5SbO12,1.4181
Li4Cr5Sn3O16,0.0
Li4Cr5WO12,1.1633999999999998
Li4Cr7(PO4)6,1.7957
Li4Cr7(PO4)6,2.261
Li4CrBi(TeO6)2,0.48770000000000024
Li4CrCo2Ni3(PO4)6,2.9872
Li4CrCo3(PO4)4,0.8765000000000001
Li4CrCo3O8,0.33000000000000007
Li4CrCo5O12,0.14769999999999994
Li4CrF6,2.718
Li4CrF6,3.6271
Li4CrFe(WO6)2,0.28000000000000025
Li4CrFe2Ni3(PO4)6,1.4205999999999999
Li4CrFe3O8,1.4288000000000003
Li4CrFe3O8,1.4266999999999999
Li4CrFe3O8,1.4325999999999999
Li4CrFe3O8,1.4247999999999998
Li4CrFe3O8,1.4291999999999994
Li4CrFe3O8,1.4180000000000001
Li4CrFe3O8,1.8474000000000004
Li4CrFe3O8,1.8326999999999996
Li4CrFe3O8,1.7779000000000003
Li4CrFe3O8,1.4179999999999997
Li4CrFe3Sn2(PO4)6,1.8994
Li4CrGa3O8,1.1265999999999998
Li4CrH8SO7,2.5716
Li4CrNi3(PO4)4,1.2002999999999995
Li4CrNi3O8,0.0
Li4CrNi5(PO4)6,2.425
Li4CrO4,1.779
Li4CrO4,1.7266000000000001
Li4CrO5,1.1333000000000002
Li4CrO5,1.3869
Li4CrO5,1.2736
Li4CrP2(O4F)2,3.5923000000000003
Li4CrP2O9,0.17589999999999995
Li4CrP2O9,0.8664999999999999
Li4CrP2O9,0.5763
Li4CrP6(H4O11)2,3.1935
Li4CrP6(H4O11)2,2.7359999999999998
Li4CrS4,0.2022999999999997
Li4CrSb(TeO6)2,1.2358000000000002
Li4CrSb(WO6)2,1.3455
Li4CrTe(WO6)2,0.39590000000000014
Li4CrTe(WO6)2,1.0823
Li4CrTe(WO6)2,0.4343999999999997
Li4CrTe(WO6)2,0.0
Li4CrTe2WO12,0.08150000000000013
Li4CrTe2WO12,0.0
Li4Cu(PO3)6,0.33610000000000007
Li4Cu(PO3)6,0.8013000000000001
Li4Cu(PO4)2,0.03980000000000006
Li4Cu(PO4)2,0.0
Li4Cu(PO4)2,0.681
Li4Cu2C4SO16,0.0
Li4Cu2Ni3Sb3O16,0.09059999999999979
Li4Cu2Ni5O12,0.0
Li4Cu2Si3O10,0.0
Li4Cu3Bi(PO4)4,0.10029999999999983
Li4Cu3F10,0.0
Li4Cu3F12,0.025100000000000122
Li4Cu3Ni(PO4)4,0.0
Li4Cu3Ni2Sb3O16,0.0
Li4Cu3Ni3(TeO8)2,0.0
Li4Cu3Ni3(WO8)2,0.0
Li4Cu3Sb(PO4)4,0.0
Li4Cu3SbO8,0.0
Li4Cu3Sn(PO4)4,0.0
Li4Cu3TeO8,0.0
Li4Cu3WO8,0.17200000000000015
Li4Cu4Cl10O,0.0795999999999999
Li4Cu5(P3O11)2,0.052200000000000024
Li4Cu5F17,0.10029999999999983
Li4Cu7(PO4)6,0.0
Li4CuF5,1.0967000000000002
Li4CuF7,0.1221000000000001
Li4CuF7,0.32950000000000035
Li4CuNi3(PO4)4,0.1019000000000001
Li4CuNi3O8,0.019000000000000128
Li4CuSbO6,0.5709
Li4CuSi2O7,0.3126
Li4CuSi2O7,0.0
Li4Fe(BO3)2,3.7584999999999997
Li4Fe(BO3)2,3.9646999999999997
Li4Fe(BO3)2,3.7795000000000005
Li4Fe(OF)2,2.6579
Li4Fe(PO3)6,4.8517
Li4Fe(PO3)6,4.3787
Li4Fe(PO4)2,4.5179
Li4Fe(PO4)2,3.6195000000000004
Li4Fe(PO4)2,4.2067000000000005
Li4Fe(SiO3)3,3.0729
Li4Fe(SiO4)2,0.21960000000000002
Li4Fe(TeO4)3,0.0
Li4Fe(WO4)3,1.4726000000000004
Li4Fe(WO4)3,0.2565000000000004
Li4Fe2(PO4)3,2.1513999999999998
Li4Fe2(PO4)3,1.0911999999999997
Li4Fe2(PO4)3,0.0
Li4Fe2C4SO16,1.5539
Li4Fe2Co3Cu3O16,0.0
Li4Fe2Co3Ni3O16,0.0
Li4Fe2Co3Sb3O16,0.5461999999999998
Li4Fe2Co3Sn3O16,0.0
Li4Fe2Co3Te3O16,1.1970999999999998
Li4Fe2Cu3O10,0.0
Li4Fe2Cu3Sb3O16,0.0
Li4Fe2Cu3Sn3O16,0.0
Li4Fe2Cu3Te3O16,0.0
Li4Fe2Ni3O10,0.0
Li4Fe2Ni3Sb3O16,0.0045999999999999375
Li4Fe2Ni3Sb3O16,0.6627000000000005
Li4Fe2Ni3Sn(PO4)6,3.0536
Li4Fe2Ni3Sn3O16,0.18889999999999985
Li4Fe2Ni3Te(PO4)6,2.8717
Li4Fe2Ni3Te3O16,1.0670000000000002
Li4Fe2Ni5O12,0.0
Li4Fe2O5,1.9146
Li4Fe2O5,1.6407000000000003
Li4Fe2OF8,0.6990000000000001
Li4Fe2P4H3O16,1.5845
Li4Fe2Si3O10,2.8516999999999997
Li4Fe2Si4O13,2.7804000000000006
Li4Fe2SiO7,1.6413000000000002
Li4Fe2TeWO12,0.0
Li4Fe3(BO3)4,1.6564999999999999
Li4Fe3(CoO4)3,0.3062999999999998
Li4Fe3(NiO4)3,0.0
Li4Fe3(NiO5)2,0.2397999999999998
Li4Fe3(OF3)2,3.2956
Li4Fe3(SiO4)3,1.7632999999999999
Li4Fe3(SiO4)3,0.009800000000000253
Li4Fe3(SiO4)3,0.5446
Li4Fe3Co(PO4)4,1.5836999999999999
Li4Fe3Co2Cu3O16,0.0
Li4Fe3Co2Sb3O16,0.0
Li4Fe3Co2Sn3O16,0.0
Li4Fe3Co3(CuO8)2,0.0
Li4Fe3Co3(NiO8)2,0.0
Li4Fe3Co3(SbO8)2,0.28009999999999957
Li4Fe3Co3(SnO8)2,0.0
Li4Fe3Co3(TeO8)2,0.0
Li4Fe3Co3(WO8)2,0.5912999999999999
Li4Fe3Co5O16,0.0
Li4Fe3Co7O20,0.0
Li4Fe3CoO8,0.34499999999999975
Li4Fe3CoO8,0.24560000000000004
Li4Fe3CoO8,1.4148
Li4Fe3CoO8,1.4030000000000005
Li4Fe3CoO8,0.8188
Li4Fe3Cu(PO4)4,0.3192999999999997
Li4Fe3Cu2Sb3O16,0.0
Li4Fe3Cu2Sn3O16,0.0
Li4Fe3Cu3(SbO8)2,0.0
Li4Fe3Cu3(SnO8)2,0.0
Li4Fe3Cu3(TeO8)2,0.0
Li4Fe3Cu3(WO8)2,0.0
Li4Fe3CuO8,0.05169999999999986
Li4Fe3Ni(PO4)4,3.0439999999999996
Li4Fe3Ni2Sb3O16,0.42989999999999995
Li4Fe3Ni2Sn3O16,0.0
Li4Fe3Ni3(SbO8)2,0.0
Li4Fe3Ni3(SnO8)2,0.0
Li4Fe3Ni3(TeO8)2,0.0
Li4Fe3Ni3(WO8)2,0.0
Li4Fe3Ni5O16,0.0
Li4Fe3NiO8,0.0
Li4Fe3O8,0.1331
Li4Fe3O8,0.0
Li4Fe3OF11,2.6304
Li4Fe3OF8,2.5652999999999997
Li4Fe3OF8,2.6677
Li4Fe3P3O12F,3.3844
Li4Fe3P4(HO8)2,3.8515
Li4Fe3P4O15,3.7823
Li4Fe3Sb(PO4)4,0.3464999999999998
Li4Fe3Sb5O16,0.005600000000000271
Li4Fe3Sb5O16,0.7951999999999995
Li4Fe3SbO8,0.8274999999999997
Li4Fe3Sn2Sb3O16,0.0
Li4Fe3Sn3(SbO8)2,0.0
Li4Fe3Sn3(TeO8)2,1.0903999999999998
Li4Fe3TeO12,0.0
Li4Fe3TeO8,1.7530000000000001
Li4Fe3TeO8,1.1877000000000004
Li4Fe3TeO8,0.8782999999999994
Li4Fe3WO8,0.8156999999999996
Li4Fe5(CoO6)2,0.0
Li4Fe5(NiO6)2,0.7066000000000003
Li4Fe5(P3O11)2,3.9173
Li4Fe5Co3O16,0.0
Li4Fe5CoO12,0.0
Li4Fe5Cu3O16,0.0
Li4Fe5Ni(PO4)6,1.5656000000000003
Li4Fe5Ni3O16,0.0
Li4Fe5NiO12,0.061899999999999844
Li4Fe5NiO12,0.0
Li4Fe5P6WO24,2.1268999999999996
Li4Fe5Sb(PO4)6,1.3064000000000004
Li4Fe5Sb3O16,0.8260999999999998
Li4Fe5SbO12,0.49360000000000026
Li4Fe5Sn3O16,0.0
Li4Fe5SnO12,0.0
Li4Fe7(OF7)2,3.0765
Li4Fe7(OF7)2,2.7589
Li4Fe7(OF7)2,2.6702000000000004
Li4Fe7(PO4)6,3.4262
Li4Fe7(PO4)6,3.4284
Li4Fe7O12,1.2685999999999997
Li4Fe9CoO20,0.0
Li4FeBi(TeO6)2,0.5344000000000002
Li4FeCo2Ni3(PO4)6,0.0
Li4FeCo3(PO4)4,2.0711
Li4FeCo3O8,0.9078
Li4FeCo3O8,0.0815999999999999
Li4FeCo5O12,0.0
Li4FeCo9O20,0.0242
Li4FeCu3(PO4)4,0.0
Li4FeCu3O8,0.0
Li4FeF8,0.0
Li4FeNi3(PO4)4,3.0109000000000004
Li4FeNi3O8,0.0
Li4FeNi5(PO4)6,3.0370999999999997
Li4FeNi5O12,0.0
Li4FeO3,2.3592999999999997
Li4FeO3F,0.9188000000000001
Li4FeO3F,2.4281
Li4FeO3F,2.1624
Li4FeO3F,2.7852
Li4FeO4,0.0
Li4FeOF4,3.8532
Li4FeOF5,1.5509999999999997
Li4FeOF5,2.7619
Li4FeOF5,2.7741000000000002
Li4FeP2O9,0.0
Li4FeP2O9,1.1233000000000002
Li4FeP2O9,0.03379999999999994
Li4FeP6(H4O11)2,4.0633
Li4FeP6(HO2)12,4.1488
Li4FeS3,0.8322
Li4FeSb(TeO6)2,1.6130999999999998
Li4FeSb(WO6)2,2.0653
Li4FeSi2O7,3.4419999999999997
Li4FeSi2O7,3.415
Li4FeTe(WO6)2,1.5467999999999997
Li4FeTe(WO6)2,0.5045999999999999
Li4FeTe(WO6)2,0.46799999999999997
Li4FeTe(WO6)2,1.1373000000000002
Li4FeTe(WO6)2,0.0
Li4FeTe2WO12,0.0
Li4Ga3Si3BrO12,3.9512
Li4Ga3Si3ClO12,4.4117999999999995
Li4Ga3Si3IO12,3.4396999999999993
Li4Ga4P4O17F3,0.08499999999999996
Li4Ge5O12,2.9262000000000006
Li4Ge9O20,2.9382
Li4GeO4,4.0961
Li4GeS4,2.5202999999999998
Li4GeS4,2.5087
Li4GeS4,2.4834
Li4H3BrO3,4.4379
Li4H3ClO3,4.4775
Li4H4Rh,0.0
Li4H5Rh,0.0
Li4H6Os,2.691
Li4H6Ru,2.388
Li4HN,2.0727
Li4HfO4,4.224
Li4La3Nb12O36,0.0
Li4La5Ti6Nb2O26,0.0
Li4Mg,0.0
Li4Mg(HN)3,2.9272
Li4Mg23B54,0.0
Li4MgCo3O8,0.0
Li4MgNi3O8,0.7586999999999997
Li4MgNi3O8,0.3275000000000001
Li4MgNi3O8,0.22979999999999956
Li4MgNi3O8,0.0
Li4Mn(BO3)2,3.5788
Li4Mn(Ni2O5)2,0.0
Li4Mn(OF)2,0.9747000000000003
Li4Mn(OF)2,2.7762000000000002
Li4Mn(PO3)6,4.2073
Li4Mn(PO3)6,4.5844000000000005
Li4Mn(PO4)2,4.124
Li4Mn(PO4)2,3.7795
Li4Mn(SiO3)3,1.8119999999999998
Li4Mn(TeO4)3,0.0
Li4Mn(WO4)3,1.6778000000000004
Li4Mn(WO4)3,0.0
Li4Mn13O24,0.0
Li4Mn2(PO4)3,0.0
Li4Mn2(PO4)3,0.4877999999999998