formula,band_gap
Cs12Sn2Sb6O,0.3235000000000001
Cs12Sn8GeO4,1.3041
Cs13Nb2(In3As5)2,0.0
Cs15W7N19,1.5345
Cs19(W2N5)6,0.0
Cs2(B2O3)9,5.0938
Cs2(PSe2)3,1.3135000000000001
Cs2(WO4)3,0.05379999999999996
Cs2AgAsBr6,1.1160999999999999
Cs2AgAsCl6,1.5886000000000002
Cs2AgAsF6,2.4428
Cs2AgAsS4,1.5615
Cs2AgAuBr6,0.0
Cs2AgAuCl6,0.7212999999999999
Cs2AgAuCl6,0.0
Cs2AgAuF6,0.0
Cs2AgBiBr6,1.3547
Cs2AgBiCl6,1.8663
Cs2AgBiF6,2.7645
Cs2AgBiI6,0.8526
Cs2AgBr3,2.7333
Cs2AgCl3,3.0370999999999997
Cs2AgF4,0.0
Cs2AgF4,0.185
Cs2AgF6,0.0
Cs2AgI3,2.6311
Cs2AgIrF6,1.3698000000000001
Cs2AgMoBr6,0.5337000000000001
Cs2AgMoCl6,0.9531000000000001
Cs2AgMoF6,2.7943000000000002
Cs2AgSbBr6,1.1916000000000002
Cs2AgSbCl6,1.6623999999999999
Cs2AgSbF6,2.3185000000000002
Cs2AgSbI6,0.43869999999999987
Cs2AgSbS4,1.4883000000000002
Cs2Al(NO3)5,2.9065
Cs2Al(TeO4)3,0.0
Cs2Al2As2O7,3.6621999999999995
Cs2Al2B2O7,4.2490000000000006
Cs2Al2P2O9,4.899699999999999
Cs2Al2Sb2O7,3.6378000000000004
Cs2Al2Si3O10,4.5359
Cs2Al7Tl,0.0
Cs2AlAgBr6,1.4697
Cs2AlAgCl6,2.4585000000000004
Cs2AlAgF6,3.4974000000000003
Cs2AlAuBr6,0.0
Cs2AlAuCl6,0.8686
Cs2AlAuF6,1.5293
Cs2AlAuI6,0.0
Cs2AlCuCl6,0.8611999999999997
Cs2AlGaH6,0.8501000000000001
Cs2AlHgBr6,0.0
Cs2AlHgCl6,0.0
Cs2AlHgF6,0.0
Cs2AlInBr6,2.2348000000000003
Cs2AlInCl6,3.1183
Cs2AlInF6,4.5643
Cs2AlInH6,0.6107999999999998
Cs2AlInI6,0.9565999999999999
Cs2AlP3O10,4.6788
Cs2AlTlBr6,2.9425999999999997
Cs2AlTlCl6,3.9209
Cs2AlTlF6,5.6085
Cs2AlTlH6,1.1361999999999997
Cs2AlTlI6,1.5910999999999997
Cs2As2OF10,3.9471
Cs2As2Pd,0.9487999999999999
Cs2As2Pt,0.9559000000000002
Cs2As2Se6O,0.6722999999999999
Cs2As3,0.4474999999999998
Cs2As4Pd3O14,0.3336000000000001
Cs2As8S13,1.5071999999999999
Cs2AsAuBr6,0.0
Cs2AsAuCl6,0.3048000000000002
Cs2AsAuI6,0.0
Cs2AsBrCl6,0.0675
Cs2AsH3SeO8,3.8623000000000003
Cs2AsH5O6,3.9705
Cs2Au2Se3,1.4734
Cs2B12H2OF12,2.7322
Cs2B12H4F9,3.3402000000000003
Cs2B12HF12,2.6744
Cs2B2S3O13,5.8455
Cs2Ba2(CO3)3,4.3381
Cs2Ba2O3,1.4695
Cs2Ba2O3,1.6481999999999999
Cs2Ba3(P2O7)2,4.7249
Cs2BaBr4,4.1817
Cs2BaCl4,4.9334
Cs2BaO2,1.4555
Cs2BaP2O7,4.6544
Cs2BeCl4,5.3524
Cs2BeF4,6.6981
Cs2BeO2,2.7813000000000003
Cs2BeO2,3.1264000000000003
Cs2Bi2Pd,0.4540000000000002
Cs2Bi4O7,2.6731
Cs2Bi4Se7,0.7744999999999997
Cs2Bi8Se13,0.9106000000000001
Cs2BiAuBr6,0.43110000000000004
Cs2BiAuCl6,0.9914000000000001
Cs2BiAuF6,1.2368999999999999
Cs2BiAuI6,0.0
Cs2BiPWO8,3.9277
Cs2BrCl,4.4631
Cs2BrCl6F,0.9489000000000001
Cs2CN2,2.2801
Cs2CO3,3.3306
Cs2Ca2(SO4)3,5.6575
Cs2Ca2Be3F12,7.2156
Cs2CaAg2H4C6S6(N3O)2,3.2679
Cs2CaAl4(SiO4)4,2.9038
Cs2CaAl4(SiO4)4,2.7723
Cs2CaBr4,4.1102
Cs2CaCl4,5.034
Cs2CaF4,6.091
Cs2CaH4,3.0097
Cs2CaO2,2.3181000000000003
Cs2CaP2O7,4.9367
Cs2CaSnCl6,3.6131
Cs2CaTm2(WO4)4,2.0275000000000003
Cs2CaV2O7,3.4021
Cs2Cd2(MoO4)3,4.1415
Cs2Cd3(B4O7)4,4.5525
Cs2Cd3Te4,1.5586999999999998
Cs2CdBi2S5,1.7308999999999997
Cs2CdBr4,3.4843
Cs2CdBr4,3.3485
Cs2CdFe(CN)6,4.114
Cs2CdGe3S8,2.3475
Cs2CdI4,2.8822
Cs2CdI4,2.8586
Cs2CdP2O7,3.3607
Cs2CdSn3Se8,1.3719999999999999
Cs2Ce10Os2I17,0.019600000000000506
Cs2Ce2Mg(CuS3)2,0.0
Cs2CeAgBr6,2.6247
Cs2CeAgCl6,2.9041
Cs2CeAgF6,0.0
Cs2CeAgI6,0.2136
Cs2CeAsS3Cl2,0.1059000000000001
Cs2CeCl6,1.8235999999999999
Cs2CeCuCl6,1.6740999999999997
Cs2CeCuI6,0.20599999999999996
Cs2CeN5O17,0.10119999999999996
Cs2CeO3,1.9291000000000003
Cs2CeO3,1.9287
Cs2CeO3,2.2437000000000005
Cs2CeO3,1.818
Cs2Co(NO3)4,2.8266
Cs2Co(PO3)4,2.5682
Cs2Co2(MoO4)3,2.4492
Cs2Co3S4,0.0
Cs2CoAgF6,1.8768
Cs2CoBr4,0.6984
Cs2CoCl4,0.7496999999999999
Cs2CoCu3F10,0.0
Cs2CoF6,0.0
Cs2CoH12(SO7)2,2.8743
Cs2CoI4,0.17220000000000013
Cs2CoO3,0.4238000000000002
Cs2CoS2,0.0
Cs2CoSe2,0.0
Cs2CoSiO4,2.6452999999999998
Cs2Cr(NO3)5,1.9524
Cs2Cr4Cd(HO4)4,2.7195
Cs2Cr4O13,1.7647
Cs2CrCl4,0.0
Cs2CrF6,0.0
Cs2CrH2Cl5O,2.5142
Cs2CrH4F10,1.9123
Cs2CrH8Cl5O4,3.1383
Cs2CrHgF6,0.0
Cs2CrO4,3.2458
Cs2Cu2Sb2S5,1.1042999999999998
Cs2Cu2Sb2Se5,0.8173000000000004
Cs2Cu2Si8O19,0.7552000000000001
Cs2Cu3(P2O7)2,0.7549000000000001
Cs2Cu3C3N7,0.0
Cs2Cu3NiF10,0.6046
Cs2Cu3SnF12,0.0
Cs2Cu3SnF12,0.7047
Cs2Cu5Se4,0.0
Cs2CuAsCl6,0.8647
Cs2CuAuCl6,0.0
Cs2CuAuF6,0.0
Cs2CuBiBr6,0.8439000000000001
Cs2CuBiCl6,1.1183999999999998
Cs2CuBiF6,1.1622999999999997
Cs2CuBiI6,0.35309999999999997
Cs2CuBr3,2.0673000000000004
Cs2CuBr4,0.1547
Cs2CuBrCl3,0.0
Cs2CuCl4,0.37629999999999997
Cs2CuF4,0.0
Cs2CuF6,0.0
Cs2CuH12(SO7)2,0.6475000000000001
Cs2CuH12(SO7)2,4.2805
Cs2CuH8(SeO6)2,2.9431
Cs2CuMoBr6,0.3988999999999998
Cs2CuMoCl6,0.8535999999999997
Cs2CuMoI6,0.08719999999999972
Cs2CuP2O7,0.0
Cs2CuPb(NO2)6,0.0
Cs2CuSbBr6,0.4006000000000003
Cs2CuSbCl6,0.8979999999999997
Cs2CuSbI6,0.6997999999999998
Cs2CuSi5O12,0.18010000000000037
Cs2DyAgCl6,3.8171
Cs2DyAuCl6,2.1667
Cs2DyCl5,4.8906
Cs2DyCuCl6,2.2443
Cs2ErAgCl6,3.5361
Cs2ErAuCl6,2.0871
Cs2ErCl5,4.9539
Cs2ErCuCl6,2.1700000000000004
Cs2ErSi4O10F,4.809
Cs2ErSi6O14F,4.7321
Cs2EuCl5,0.0
Cs2Fe2P3O8F7,2.5752
Cs2FeF5,0.0
Cs2FeH12(SO7)2,0.13949999999999996
Cs2FeH2Cl5O,2.4188
Cs2FeNi(CN)6,1.3748
Cs2FeO4,0.0
Cs2Ga2B2O7,3.7986
Cs2Ga3As5O18,2.4251
Cs2GaAgBr6,0.11009999999999999
Cs2GaAgCl6,1.2972
Cs2GaAgF6,2.7308
Cs2GaAgI6,0.0
Cs2GaAuBr6,0.0
Cs2GaAuCl6,0.0
Cs2GaAuF6,0.9632000000000001
Cs2GaAuI6,0.0
Cs2GaCuCl6,0.0
Cs2GaFeS4,0.3699000000000001
Cs2GaHgBr6,0.0
Cs2GaHgCl6,0.0
Cs2GaHgF6,0.0
Cs2GaHgI6,0.0
Cs2GaP3O10,4.0775
Cs2GaP4H3O14,4.9195
Cs2GaSb2,1.0828000000000002
Cs2GdAgCl6,0.0
Cs2GdAuCl6,1.5419
Cs2GdCl5,2.9185
Cs2Ge(TeO4)3,0.6737000000000002
Cs2Ge2S5,2.3018
Cs2GeB4O9,4.274900000000001
Cs2GeCl6,2.215
Cs2GeF6,6.0336
Cs2GeO3,2.9689
Cs2GeP4O13,4.1237
Cs2GeSe3,1.6551999999999998
Cs2GeSe4,1.6824000000000001
Cs2GeTe4,0.5379999999999998
Cs2H2C2O5,3.4412000000000003
Cs2H4Pd,2.9382
Cs2H4Pt,3.2534
Cs2H4RuNCl5O3,1.8073
Cs2H6CO6,4.0513
Cs2H6Pt,3.9082999999999997
Cs2Hf(WO4)3,2.976
Cs2Hf(WO4)3,3.0183
Cs2HfBr6,3.2973
Cs2HfCl6,4.2277000000000005
Cs2HfF6,7.2288
Cs2HfI6,2.2062
Cs2HfO3,3.8373
Cs2HfO3,3.5968
Cs2HfO3,2.9399
Cs2Hg(BSe)9,1.8712
Cs2Hg27,0.0
Cs2Hg2H2I4Br2O,2.0626
Cs2Hg3(GeS4)2,1.7759
Cs2Hg3H2I8O,1.77
Cs2Hg3I8,1.7313999999999998
Cs2Hg3S4,1.7324999999999997
Cs2Hg3Se4,1.1953999999999998
Cs2Hg6S7,0.6230999999999998
Cs2HgAsBr6,0.0
Cs2HgAsCl6,0.0
Cs2HgAsF6,0.0
Cs2HgAsI6,0.0
Cs2HgAuBr6,0.0
Cs2HgAuF6,0.0
Cs2HgBiBr6,0.0
Cs2HgBiCl6,0.0
Cs2HgBiF6,0.0
Cs2HgBiI6,0.0
Cs2HgBr4,2.4673
Cs2HgBr4,2.4909
Cs2HgBr4,2.479
Cs2HgCl4,3.0271
Cs2HgCl4,3.0535
Cs2HgCl4,3.0746
Cs2HgF4,2.0818
Cs2HgI4,2.0411
Cs2HgI4,2.0976999999999997
Cs2HgIrF6,0.0
Cs2HgMoF6,0.0
Cs2HgO2,2.0688999999999997
Cs2HgPdCl6,1.0295
Cs2HgPdF6,0.0
Cs2HgSbBr6,0.0
Cs2HgSbCl6,0.0
Cs2HgSbF6,0.0
Cs2HgSbI6,0.0
Cs2HgTe,1.8046
Cs2HoCl5,4.9039
Cs2I4O11,2.8686000000000007
Cs2I4O11,2.8930999999999996
Cs2IBrCl6,0.8589
Cs2ICl6F,1.1260999999999999
Cs2In(IO3)6,0.0
Cs2In2Sb3,0.7882999999999996
Cs2In3,0.0
Cs2InAgBr6,0.3104
Cs2InAgCl6,1.3421
Cs2InAgF6,2.1888
Cs2InAgI6,0.0
Cs2InAsBr6,0.7186999999999999
Cs2InAsCl6,1.3524
Cs2InAsF6,2.1016000000000004
Cs2InAsI6,0.129
Cs2InAuBr6,0.0
Cs2InAuCl6,0.0
Cs2InAuF6,0.6895
Cs2InAuI6,0.0
Cs2InBiBr6,0.8533999999999999
Cs2InBiCl6,1.7611999999999999
Cs2InBiF6,2.2862
Cs2InBiI6,0.6520999999999999
Cs2InCuBr6,0.0
Cs2InCuCl6,0.0
Cs2InCuF6,0.09169999999999989
Cs2InGaBr6,1.244
Cs2InGaCl6,1.9897
Cs2InGaF6,3.3133
Cs2InGaI6,0.2835000000000001
Cs2InHgBr6,0.0
Cs2InHgCl6,0.0
Cs2InHgF6,0.0
Cs2InHgI6,0.0
Cs2InSbBr6,0.7464999999999999
Cs2InSbCl6,1.3727000000000003
Cs2InSbF6,2.2146999999999997
Cs2InSbI6,0.5823999999999998
Cs2IrCl5O,0.9333999999999999
Cs2IrCl6,0.0
Cs2IrF6,0.07769999999999999
Cs2K2B10O17,4.933
Cs2K2B10O17,4.6216
Cs2K2B10O17,4.9336
Cs2K2Cd3O5,1.2436
Cs2K2Pd2N8O25,0.19900000000000007
Cs2K2TeO5,2.0248999999999997
Cs2K4Fe2O5,0.0
Cs2KAgF6,0.6370999999999999
Cs2KAlBr6,3.2314
Cs2KAlCl6,4.6198
Cs2KAlF6,6.6738
Cs2KAlI6,1.7447
Cs2KAsBr6,3.0015
Cs2KAsCl6,3.4599
Cs2KAsF6,4.6474
Cs2KAsI6,1.885
Cs2KAuBr6,0.0
Cs2KAuCl6,0.2103
Cs2KAuF6,0.788
Cs2KBiBr6,3.4246
Cs2KBiCl6,4.0357
Cs2KBiF6,4.9469
Cs2KBiI6,2.6565999999999996
Cs2KCeBr6,0.31400000000000006
Cs2KCeCl6,4.0361
Cs2KCeF6,0.4186999999999994
Cs2KCeI6,0.2767999999999997
Cs2KCo(CN)6,4.3651
Cs2KCoF6,3.0136000000000003
Cs2KCr(CN)6,0.3226
Cs2KCrCl6,1.5534999999999999
Cs2KCrF6,4.287
Cs2KCuF6,0.8990999999999999
Cs2KDyCl6,5.1988
Cs2KErCl6,5.2229
Cs2KFe(CN)6,0.0
Cs2KFeF6,4.095599999999999
Cs2KGaBr6,2.1254999999999997
Cs2KGaCl6,3.3316
Cs2KGaF6,6.0476
Cs2KGaI6,0.8284000000000001
Cs2KGdCl6,3.2188
Cs2KHoCl6,5.2294
Cs2KInBr6,2.3809
Cs2KInCl6,3.5784
Cs2KInF6,5.4629
Cs2KInI6,1.2626
Cs2KLaCl6,4.842
Cs2KLaF6,6.2199
Cs2KLuCl6,5.2423
Cs2KMn(CN)6,0.06570000000000004
Cs2KMn3F12,0.8101999999999999
Cs2KMnF6,1.7435
Cs2KMnF6,0.0
Cs2KMoBr6,1.6085
Cs2KMoCl6,1.666
Cs2KMoF6,4.1117
Cs2KMoI6,1.4526999999999999
Cs2KNF6,2.9855
Cs2KNdBr6,4.2395
Cs2KNdCl6,5.1287
Cs2KNdI6,3.2412
Cs2KNiF6,0.0
Cs2KPbF6,0.0
Cs2KPdF6,0.0
Cs2KPdF6,0.4386
Cs2KPrBr6,4.2336
Cs2KPrCl6,4.9929
Cs2KPrF6,6.2956
Cs2KPrI6,3.2327999999999997
Cs2KRb,0.0
Cs2KRhF6,2.1012999999999997
Cs2KRuF6,0.0
Cs2KSbBr6,2.8501000000000003
Cs2KSbCl6,3.393
Cs2KSbF6,4.1778
Cs2KSbI6,2.4410000000000003
Cs2KScBr6,3.1875
Cs2KScCl6,3.7113
Cs2KScF6,6.8201
Cs2KScI6,2.3591
Cs2KSiF7,5.4636
Cs2KSmCl6,5.0573
Cs2KTaBr6,0.0
Cs2KTaCl6,0.0
Cs2KTaF6,0.0
Cs2KTaI6,0.0
Cs2KTbCl6,5.0878
Cs2KTiF6,0.0
Cs2KTiO2F3,3.84
Cs2KTlBr6,1.3749
Cs2KTlCl6,2.3439
Cs2KTlF6,3.8205
Cs2KTlI6,0.5223
Cs2KTmCl6,5.2319
Cs2KU2(Si2O7)2,0.0
Cs2KVF6,0.0
Cs2KYBr6,4.2852
Cs2KYCl6,5.1935
Cs2KYF6,6.464
Cs2KYI6,3.2816
Cs2KZrOF5,4.8774
Cs2La10Os2I17,0.0
Cs2La10Ru2I17,0.0035000000000007248
Cs2LaAgCl6,3.6098999999999997
Cs2LaAuCl6,2.2750000000000004
Cs2LaBr5,3.3266
Cs2LaCl5,4.097300000000001
Cs2LaCuCl6,2.1808
Cs2LaN5O17,0.24579999999999996
Cs2LaNb2O7,0.3411999999999997
Cs2LaTa6(Br5O)3,0.9318
Cs2Li(IO3)2,0.2681
Cs2Li14Tb3O14,0.0
Cs2Li2B2P4O15,5.4224000000000006
Cs2Li2GeO4,3.4743999999999997
Cs2Li2SiO4,3.8531000000000004
Cs2Li2TiO4,3.9553999999999996
Cs2Li3(BO2)5,4.5354
Cs2Li3B3P6(PbO12)2,5.0959
Cs2Li3Br5,4.4362
Cs2Li3F5,5.618399999999999
Cs2Li3GaO4,3.6593
Cs2Li3I5,3.8569
Cs2Li3I5,3.8262
Cs2Li4UO6,2.1195999999999997
Cs2Li5(BO2)7,3.9804999999999997
Cs2LiAl3F12,7.0872
Cs2LiAlF6,6.8832
Cs2LiAsO4,3.7302000000000004
Cs2LiAuCl6,0.0
Cs2LiAuF6,0.5297999999999999
Cs2LiBiBr6,2.9154
Cs2LiBiCl6,3.6075
Cs2LiBiF6,4.8946000000000005
Cs2LiBiI6,1.9323
Cs2LiBr3,4.3476
Cs2LiCeBr6,0.29090000000000016
Cs2LiCeCl6,0.3208000000000002
Cs2LiCeF6,0.5298999999999996
Cs2LiCeI6,0.2572000000000001
Cs2LiCl3,5.13
Cs2LiCo(CN)6,4.2816
Cs2LiCr(CN)6,1.7168999999999999
Cs2LiCr(CN)6,1.5612
Cs2LiCr(CN)6,1.8734
Cs2LiCr3F12,3.1832000000000003
Cs2LiCrF6,4.3359000000000005
Cs2LiDyCl6,5.0917
Cs2LiErCl6,5.1941
Cs2LiF3,5.659000000000001
Cs2LiFe(CN)6,0.0
Cs2LiGaF6,6.1433
Cs2LiGdCl6,2.782
Cs2LiI3,3.7681999999999998
Cs2LiInBr6,1.5789
Cs2LiInCl6,2.7765
Cs2LiInCl6,3.2276
Cs2LiInF6,5.227
Cs2LiIr(CN)6,5.4079
Cs2LiLaBr6,3.7835
Cs2LiLaCl6,4.4927
Cs2LiLuCl6,5.3389
Cs2LiMn(CN)6,0.0
Cs2LiMnO4,1.5915
Cs2LiMoBr6,1.2684000000000002
Cs2LiMoCl6,1.5978
Cs2LiMoF6,4.8178
Cs2LiMoI6,0.9856000000000003
Cs2LiNF6,2.4669999999999996
Cs2LiNbF6,0.0
Cs2LiNbS4,2.4582
Cs2LiNd(BO3)2,4.4761999999999995
Cs2LiNdBr6,3.9972
Cs2LiNdCl6,4.8227
Cs2LiNdF6,7.055000000000001
Cs2LiNdI6,2.9743000000000004
Cs2LiPdF6,0.0
Cs2LiPrBr6,3.9721
Cs2LiPrCl6,4.7971
Cs2LiPrF6,6.9993
Cs2LiPrI6,2.9608999999999996
Cs2LiSbBr6,2.3396
Cs2LiSbCl6,2.9507999999999996
Cs2LiSbF6,4.1258
Cs2LiSbI6,1.7376
Cs2LiScCl6,3.7738
Cs2LiScCl6,3.8154000000000003
Cs2LiScF6,6.6268
Cs2LiSmCl6,4.9508
Cs2LiTaBr6,0.0
Cs2LiTaCl6,0.0
Cs2LiTaF6,0.0
Cs2LiTaI6,0.0
Cs2LiTbCl6,5.0434
Cs2LiTlBr6,0.5505
Cs2LiTlCl6,1.5236
Cs2LiTlF6,3.4749
Cs2LiTm2(WO4)4,2.2391
Cs2LiTm2(WO4)4,1.9371
Cs2LiTmCl6,5.2527
Cs2LiV3F12,2.1633999999999998
Cs2LiVO4,3.9955
Cs2LiVS4,1.5877999999999999
Cs2LiYBr6,4.0508
Cs2LiYCl6,4.8986
Cs2LiYF6,7.266299999999999
Cs2LiYI6,3.0084999999999997
Cs2Lu7CCl18,0.0
Cs2LuAgCl6,3.7052
Cs2Mg(FeS2)2,0.22940000000000005
Cs2Mg2(MoO4)3,4.2715
Cs2Mg2(WO4)3,4.659
Cs2MgCl4,4.9974
Cs2MgCr2(H6O7)2,3.2252
Cs2MgFe(CN)6,4.1775
Cs2MgGe3Se8,1.4687000000000001
Cs2MgH12(SO7)2,5.0352
Cs2MgH12(SeO7)2,3.8819999999999997
Cs2MgH4,2.9953000000000003
Cs2MgH4,3.8165
Cs2MgH8(CO5)2,4.4403999999999995
Cs2MgMo2(O2F3)2,2.3578
Cs2MgMo2(O2F3)2,1.3547
Cs2MgO2,2.0341000000000005
Cs2MgP4(HO2)8,5.3770999999999995
Cs2MgSi5O12,4.5828
Cs2MgSn3Se8,1.4299
Cs2MgTi2Cu2(OF5)2,0.5276000000000001
Cs2MgZr(PO4)3,0.0
Cs2Mn(PO3)4,4.6555
Cs2Mn(PSe3)2,0.9649999999999999
Cs2Mn(TeS3)2,0.6871999999999998
Cs2Mn2(MoO4)3,3.303
Cs2Mn2Be3F12,0.0
Cs2Mn3S4,0.034600000000000186
Cs2Mn3S4,0.40969999999999995
Cs2Mn3Se4,0.0
Cs2Mn3Te4,0.0
Cs2MnBi2S5,0.8597999999999999
Cs2MnBr4,2.5604
Cs2MnCl4,1.2688000000000001
Cs2MnCl6,1.3422999999999998
Cs2MnF4,3.4593999999999996
Cs2MnF5,1.3155000000000001
Cs2MnF6,3.3832
Cs2MnFe(CN)6,0.0
Cs2MnH12(SO7)2,4.2046
Cs2MnH12(SeO7)2,2.7752999999999997
Cs2MnHgF6,0.38739999999999997
Cs2MnNiF6,3.9301
Cs2MnO4,0.22829999999999995
Cs2MnO4,0.23099999999999987
Cs2MnS2,1.1924000000000001
Cs2MnSO4F3,0.0
Cs2MnSe2,0.0
Cs2MnSi5O12,2.4585
Cs2MnSnTe4,0.3822000000000001
Cs2MnTe2,1.0568
Cs2MnV2(BrO3)2,1.8578000000000001
Cs2MnV2(ClO3)2,2.0974
Cs2Mo(SO)2,2.4497
Cs2Mo(SO)2,2.342
Cs2Mo15S19,0.0
Cs2Mo3O10,3.4187000000000003
Cs2Mo3P3O17,2.2994
Cs2Mo3P5O19,0.48870000000000013
Cs2Mo3SeO12,2.5059
Cs2Mo4O13,3.1268000000000002
Cs2Mo5(P3O11)3,1.4311
Cs2Mo5O16,3.0849
Cs2Mo7O22,2.8656
Cs2MoBr6,0.0
Cs2MoCl6,0.0
Cs2MoO4,4.6528
Cs2MoO4,4.6118
Cs2MoS4,1.7357999999999998
Cs2MoSe4,1.3568
Cs2Na(C2N3)3,4.392
Cs2Na2B10O17,4.7124999999999995
Cs2Na2IrO4,0.0
Cs2Na2SnGeF12,5.0789
Cs2Na2Sr(B3O5)6,5.6254
Cs2Na3InO4,2.3304
Cs2Na3TlO4,1.5574
Cs2Na4Cu2Si12H4O31,1.1812000000000002
Cs2Na6Al6Ge7O30,0.2764
Cs2Na8U8Mo5O44,1.8121000000000003
Cs2NaAl(PO4)2,4.457400000000001
Cs2NaAl3F12,6.9174999999999995
Cs2NaAlCl6,4.121300000000001
Cs2NaAlF6,6.7033000000000005
Cs2NaAlF6,6.697
Cs2NaAlH6,1.9337999999999997
Cs2NaAs7,1.4374
Cs2NaAsBr6,2.559
Cs2NaAsCl6,3.062
Cs2NaAsF6,4.557799999999999
Cs2NaAsO4,3.5372999999999997
Cs2NaAu3(CN)6,2.5885
Cs2NaAuBr6,0.0
Cs2NaAuCl6,0.0
Cs2NaAuF6,0.6262
Cs2NaBiBr6,3.1774999999999998
Cs2NaBiCl6,3.7126
Cs2NaBiF6,5.021000000000001
Cs2NaBiI6,2.1073999999999997
Cs2NaCaCl6,0.0
Cs2NaCaF6,0.0
Cs2NaCeBr6,3.1789
Cs2NaCeCl6,0.3601000000000001
Cs2NaCeF6,6.3611
Cs2NaCeI6,2.3813
Cs2NaCo(CN)6,4.222799999999999
Cs2NaCoF6,0.9021
Cs2NaCr(CN)6,1.8425
Cs2NaCrCl6,1.3532
Cs2NaCrF6,3.6721
Cs2NaDyCl6,5.0424
Cs2NaErCl6,5.3424
Cs2NaErF6,6.8647
Cs2NaFe(CN)6,3.5157
Cs2NaFeF6,3.841
Cs2NaFeF6,4.0522
Cs2NaGaBr6,1.6072
Cs2NaGaCl6,2.8347
Cs2NaGaF6,5.8467
Cs2NaGaF6,5.9704
Cs2NaGaH6,1.0896
Cs2NaGaP2,1.4820000000000002
Cs2NaGdCl6,3.0186
Cs2NaHoCl6,5.2906
Cs2NaInBr6,1.8935
Cs2NaInCl6,2.9903999999999997
Cs2NaInF6,5.304
Cs2NaInH6,1.2557999999999998
Cs2NaInI6,0.6998
Cs2NaIrF6,2.2607
Cs2NaLaBr6,3.8470999999999997
Cs2NaLaCl6,4.6183
Cs2NaLiF6,0.0
Cs2NaLuCl6,5.494
Cs2NaMgF6,0.0
Cs2NaMn(CN)6,1.9383
Cs2NaMnF6,0.0
Cs2NaMoBr6,1.4443
Cs2NaMoCl6,1.6371
Cs2NaMoF6,4.3824000000000005
Cs2NaMoI6,1.0847
Cs2NaNF6,2.7973999999999997
Cs2NaNdBr6,4.1254
Cs2NaNdCl6,4.9943
Cs2NaNdF6,6.7399000000000004
Cs2NaNiF6,0.0
Cs2NaPbF6,0.0
Cs2NaPrBr6,4.1251999999999995
Cs2NaPrCl6,4.9676
Cs2NaPrF6,6.6211
Cs2NaPrI6,3.1147
Cs2NaRhF6,1.9082000000000003
Cs2NaRuF6,0.0
Cs2NaSbBr6,2.556
Cs2NaSbCl6,3.0473
Cs2NaSbF6,4.2317
Cs2NaSbI6,1.8895
Cs2NaScBr6,3.1061
Cs2NaScCl6,3.8894
Cs2NaScF6,6.8066
Cs2NaScI6,2.2294
Cs2NaSmCl6,5.1745
Cs2NaSmF6,6.924799999999999
Cs2NaSrF6,0.0
Cs2NaTaBr6,0.0
Cs2NaTaCl6,0.0
Cs2NaTaF6,0.0
Cs2NaTaI6,0.0
Cs2NaTbCl6,5.2046
Cs2NaTbF6,6.861800000000001
Cs2NaTiF6,0.0
Cs2NaTlBr6,1.0093
Cs2NaTlCl6,1.9178
Cs2NaTlF6,3.6228
Cs2NaTlI6,0.0817
Cs2NaTmCl6,5.4487
Cs2NaUBr6,0.18820000000000014
Cs2NaUCl6,0.5004
Cs2NaVF6,0.0
Cs2NaVO4,3.7033999999999994
Cs2NaYBr6,4.2176
Cs2NaYCl6,5.0774
Cs2NaYF6,6.863900000000001
Cs2NaYI6,3.1517
Cs2Nb3Cl7O5,2.3094
Cs2Nb4O11,2.9082
Cs2Nb6PbCl18,1.0644
Cs2NbAgS4,2.2195
Cs2NbAgSe4,1.8213
Cs2NbCuSe4,1.6350999999999998
Cs2NbF6,0.2477999999999998
Cs2NbTlF6,0.0
Cs2NdAgBr6,3.3798
Cs2NdAgCl6,3.8207
Cs2NdAgF6,3.3085999999999998
Cs2NdAgI6,2.5429
Cs2NdAuCl6,2.2148
Cs2NdCuBr6,2.2431
Cs2NdCuI6,1.7889
Cs2Ni(NO3)4,2.7215
Cs2Ni(PS3)2,0.25219999999999976
Cs2Ni2(MoO4)3,3.8074
Cs2Ni3S4,0.8843000000000001
Cs2Ni3S4,0.9065999999999996
Cs2Ni3Se4,0.6160000000000001
Cs2NiAs2,0.5567000000000002
Cs2NiF6,2.4357
Cs2NiH12(SO7)2,1.1409
Cs2NiH12(SO7)2,4.4233
Cs2NiO2,2.6343
Cs2Np(SO5)2,0.21309999999999985
Cs2Np2PO4F7,0.07819999999999983
Cs2NpBr6,0.09109999999999996
Cs2NpO3,0.0
Cs2NpO4,0.2765000000000004
Cs2O,0.26819999999999977
Cs2O,1.6506000000000003
Cs2O,0.5831999999999997
Cs2O2,1.6496
Cs2O3,0.0
Cs2OsBrClF4,0.0
Cs2P2H2O7,5.2113
Cs2P2Pd,1.0474999999999999
Cs2P3,0.8470999999999997
Cs2P4Pd3O14,1.3628
Cs2PAuS4,2.1538000000000004
Cs2PH3SeO8,4.1818
Cs2PH4Se3O2,1.6174000000000002
Cs2PH5O6,4.6676
Cs2PO3F,4.402
Cs2PSe5,1.4824000000000002
Cs2PaF7,4.0373
Cs2Pb(ICl)2,2.9646000000000003
Cs2Pb2O3,2.0761000000000003
Cs2PbBr6,0.5108
Cs2PbCl6,1.4541
Cs2PbClF6,0.09899999999999998
Cs2PbN2(ClO3)2,2.8095
Cs2PbO2,1.8593000000000002
Cs2PbO3,1.3724
Cs2PbO3,1.3911
Cs2Pd(IBr2)2,0.7401
Cs2Pd(IBr2)2,0.7455
Cs2Pd(ICl2)2,0.9218
Cs2Pd3S4,1.3815
Cs2Pd3Se4,0.9866999999999999
Cs2PdBr6,0.756
Cs2PdC2,1.7513999999999998
Cs2PdCl4,1.839
Cs2PdCl4,1.8519999999999999
Cs2PdCl6,1.3617
Cs2PdF6,2.3064999999999998
Cs2PdI6,0.6286000000000003
Cs2PdI6,0.04489999999999994
Cs2PdSe8,1.1887
Cs2Pr10Co2I17,0.052999999999999936
Cs2Pr10Os2I17,0.0
Cs2Pr10Ru2I17,0.0013000000000000789
Cs2PrAgCl6,3.8259999999999996
Cs2PrAgF6,3.2577
Cs2PrAgI6,2.5343
Cs2PrAuCl6,1.9281000000000001
Cs2PrCl5,4.7712
Cs2PrCuBr6,2.1974
Cs2PrCuCl6,2.3465000000000003
Cs2PrCuI6,1.7763999999999998
Cs2PrF6,0.0
Cs2PrO3,0.0
Cs2Pt,1.6743000000000001
Cs2Pt3S4,1.6386000000000003
Cs2Pt3Se4,1.3326000000000002
Cs2PtBr6,1.4417
Cs2PtC2,1.2698
Cs2PtC2(OF)4,2.4863
Cs2PtC4(IN2)2,1.4987
Cs2PtCl4,2.1483
Cs2PtCl4,2.0642
Cs2PtCl6,2.1146
Cs2PtF6,2.6933000000000002
Cs2PtF6,2.814
Cs2PtI6,0.6550999999999998
Cs2PtS6(O3F)6,2.1952
Cs2Pu(Cl2O)2,0.06590000000000007
Cs2Pu(Cl2O)2,0.03059999999999999
Cs2PuCl6,0.365
Cs2PuO4,0.0
Cs2RbAlBr6,3.2433
Cs2RbAlCl6,4.6551
Cs2RbAlF6,8.3194
Cs2RbAlI6,1.8835000000000002
Cs2RbAsBr6,2.8942
Cs2RbAsCl6,3.4685
Cs2RbAsF6,4.5626999999999995
Cs2RbAsI6,2.286
Cs2RbAuBr6,0.020799999999999985
Cs2RbAuCl6,0.1911
Cs2RbAuF6,0.7939
Cs2RbBiBr6,3.4129
Cs2RbBiCl6,4.131600000000001
Cs2RbBiF6,4.7749
Cs2RbBiI6,2.7905
Cs2RbCeCl6,4.1198
Cs2RbCuF6,0.8744000000000001
Cs2RbDyCl6,5.059200000000001
Cs2RbErCl6,5.067
Cs2RbFe(CN)6,0.0
Cs2RbFeF6,4.1178
Cs2RbGaBr6,2.1605
Cs2RbGaCl6,3.4534000000000002
Cs2RbGaF6,5.9411000000000005
Cs2RbGaI6,0.9753000000000001
Cs2RbGdCl6,3.2356999999999996
Cs2RbInBr6,2.5058
Cs2RbInCl6,3.6668
Cs2RbInF6,5.3728
Cs2RbInI6,1.3972
Cs2RbIrF6,2.5113
Cs2RbLaCl6,4.4818999999999996
Cs2RbLuCl6,5.0606
Cs2RbNF6,2.9581
Cs2RbNbF6,0.0
Cs2RbNdCl6,4.8574
Cs2RbPbF6,0.0
Cs2RbPdF6,0.0
Cs2RbPdF6,0.5693
Cs2RbPrCl6,4.8296
Cs2RbRuF6,0.0
Cs2RbSbBr6,2.8409999999999997
Cs2RbSbCl6,3.4707
Cs2RbSbF6,4.0614
Cs2RbSbI6,2.3768000000000002
Cs2RbScBr6,3.2725
Cs2RbScCl6,4.0707
Cs2RbScF6,6.6555
Cs2RbScI6,2.3929
Cs2RbSiF7,5.5149
Cs2RbSmCl6,4.8937
Cs2RbTaF6,0.0
Cs2RbTbCl6,4.923299999999999
Cs2RbTlBr6,1.5132999999999999
Cs2RbTlCl6,2.4688999999999997
Cs2RbTlF6,3.7422
Cs2RbTlI6,0.6116
Cs2RbTmCl6,5.0734
Cs2RbYBr6,4.1715
Cs2RbYCl6,4.9337
Cs2RbYF6,6.1978
Cs2RbYI6,3.3296
Cs2RbZrOF5,4.7098
Cs2Re(ClO)3,2.3472
Cs2Re2S5,0.8111000000000002
Cs2Re2Se5,0.7001999999999997
Cs2Re3Se4I3,2.0739
Cs2ReCl6,1.2397
Cs2ReF6,1.8006000000000002
Cs2ReO4,0.0
Cs2RhAuF6,0.6011000000000001
Cs2RhCl5O,0.9935
Cs2RhF6,0.0
Cs2RuAuF6,0.0
Cs2RuO4,0.5855999999999999
Cs2S,2.0948
Cs2S,2.0952
Cs2S3,1.3635
Cs2S5,1.8661999999999999
Cs2SBrCl6,0.0
Cs2SO4,5.0111
Cs2SO4,4.5791
Cs2Sb,0.28390000000000004
Cs2Sb2OF10,3.8868
Cs2Sb2Pd,0.8965999999999998
Cs2Sb2Pt,0.7406999999999999
Cs2Sb4S7,1.6439
Cs2Sb8S13,1.6640000000000001
Cs2SbAuBr6,0.2823
Cs2SbAuCl6,0.4038999999999997
Cs2SbAuI6,0.0
Cs2SbBr6,0.0
Cs2SbCl6,0.0
Cs2SbCl6,0.08889999999999998
Cs2SbF5,3.5273000000000003
Cs2SbF5,4.7187
Cs2ScAgBr6,2.8546
Cs2ScAgCl6,3.3916
Cs2ScAgF6,3.6510999999999996
Cs2ScAgI6,2.0571
Cs2ScAuBr6,1.7173
Cs2ScAuCl6,2.0233
Cs2ScAuF6,1.8594
Cs2ScAuI6,1.0839
Cs2ScCuCl6,1.9388
Cs2ScCuF6,1.8308
Cs2ScHgBr6,0.0
Cs2ScHgCl6,0.0
Cs2ScHgF6,0.0
Cs2ScHgI6,0.0
Cs2ScInBr6,2.2014
Cs2ScInCl6,2.8042999999999996
Cs2ScInF6,4.142200000000001