formula,band_gap
Ba3Sr(CoO3)4,1.0621999999999998
Ba3Sr(Cu2O5)2,0.0
Ba3Sr(CuO3)4,0.0
Ba3Sr(HgO2)4,2.2041
Ba3Sr(MoO4)4,3.9819999999999998
Ba3Sr(SnO3)4,0.5954999999999995
Ba3Sr2As3ClO12,3.9384000000000006
Ba3Sr2Ca4Mg3(SiO4)6,4.8935
Ba3Sr2Re3ClO15,2.5002000000000004
Ba3Sr3(BiN)2,0.4442999999999997
Ba3Sr3(SbN)2,0.6693000000000002
Ba3Sr4B3O9F5,4.3528
Ba3Sr4O7,2.4311000000000003
Ba3Sr5Co2(CuO4)6,0.0
Ba3Sr5Co3(CuO4)5,0.0
Ba3Sr5Co3Cu5O24,0.0
Ba3Sr5Co4(CuO5)4,0.0
Ba3Sr5Co4(CuO6)4,0.0
Ba3Sr5Ti7MnO20,0.0
Ba3Sr5Ti7MnO24,0.9051
Ba3Sr5Ti8O20,0.0
Ba3Sr5Ti8O24,1.7229999999999999
Ba3Sr5Tl5Cu3O19,0.0
Ba3Sr9Al4(O4F)4,4.3095
Ba3SrAg4,0.0
Ba3SrCa2(MoO6)2,2.2648
Ba3SrCa2(WO6)2,3.3280000000000003
Ba3SrCo(CuO4)3,0.0
Ba3SrCo2Cu4(SO)4,0.0
Ba3SrCoCu3O10,0.0
Ba3SrEr2(MoO6)2,0.9889000000000001
Ba3SrI8,3.2338000000000005
Ba3SrIr2O9,0.0
Ba3SrLu2(BiO6)2,1.5910000000000002
Ba3SrMg2(Si2O7)2,4.4968
Ba3SrMg2(TeO6)2,1.9849999999999994
Ba3SrMg4F16,6.687799999999999
Ba3SrNb2O9,2.8291000000000004
Ba3SrNb2O9,3.2445
Ba3SrNb2O9,3.4254999999999995
Ba3SrNd2(Cu3O7)2,0.0
Ba3SrNd2(IrO6)2,0.0
Ba3SrO4,2.1745
Ba3SrRu2O9,0.0
Ba3SrSb2O9,3.1456
Ba3SrSi8(NO)8,3.9167000000000005
Ba3SrSm2(CuO2)6,0.0
Ba3SrSn12,0.0
Ba3SrTa2O9,3.8005000000000004
Ba3SrTa2O9,4.0236
Ba3SrTa2O9,3.3696
Ba3SrTl2Cu2HgO10,0.0
Ba3SrY2(SbO6)2,3.5883
Ba3SrY8(CuO5)4,0.27200000000000024
Ba3SrZn2(WO6)2,3.3892
Ba3Ta2CdO9,3.4856
Ba3Ta2CoO9,2.2293999999999996
Ba3Ta2MnO9,2.3735
Ba3Ta2NiO9,3.1512
Ba3Ta2Se9,1.202
Ba3Ta2Ti6O21,0.0
Ba3Ta2ZnO9,3.3487999999999998
Ba3Ta3N5,0.0
Ba3Ta4NbO15,0.0
Ba3Ta4Ti4O21,2.1932
Ba3Ta4TiO15,2.3532
Ba3Ta4TiO15,2.0930999999999997
Ba3Ta5O15,0.0
Ba3Ta6(Si2O13)2,3.0288000000000004
Ba3Ta6Fe2O21,2.2005999999999997
Ba3Ta6Si4O23,0.0
Ba3TaAs3O,1.0819
Ba3TaFe3(SiO7)2,2.5099
Ba3TaN3,0.601
Ba3TaN3Cl2,1.9944000000000002
Ba3TaNb4O15,0.0
Ba3Tb(BO2)9,5.1617999999999995
Ba3Tb2(PS4)4,2.3711
Ba3Tb2WO9,2.3808
Ba3TbIrRuO9,0.0
Ba3TbRu2O9,0.0
Ba3Te2O9,2.3815999999999997
Ba3Te3(BrO4)2,3.2962
Ba3Te4O11,3.2308999999999997
Ba3ThSe7,0.923
Ba3Ti(FeO4)2,1.6418
Ba3Ti20O40,0.0
Ba3Ti2O7,2.2712
Ba3Ti3(BO6)2,2.1313
Ba3Ti3Fe3(BiO9)2,0.0
Ba3Ti3N5,0.0
Ba3Ti3O8,0.0
Ba3Ti4Sb4O21,2.4014
Ba3TiAl10O20,3.2524
Ba3TiF12,0.7164999999999999
Ba3TiFe2O9,0.24630000000000019
Ba3TiFe2O9,0.0
Ba3TiN3,0.0
Ba3TiNb4O15,2.3023
Ba3TiNb4O15,2.4151
Ba3TiO5,2.5342000000000002
Ba3TiS5,1.4489
Ba3TiZnWO9,3.0816999999999997
Ba3Tl2Cl2O5,0.0
Ba3Tm(BO2)9,5.2609
Ba3Tm(BO3)3,3.8436000000000003
Ba3Tm4O9,3.2767
Ba3TmIrRuO9,0.0
Ba3TmRu2O9,0.0
Ba3U2(PO5)4,0.059700000000000086
Ba3U2As4O19,2.363
Ba3UAgS6,0.6431
Ba3UFe2O9,1.0145000000000004
Ba3UFeS6,0.0
Ba3UFeSe6,0.0
Ba3UIn2O9,1.3951999999999996
Ba3UIn2O9,1.5562
Ba3UMnS6,0.0
Ba3UMnSe6,0.0
Ba3UO6,2.1571999999999996
Ba3V2(PO5)3,1.5997
Ba3V2(SeO4)4,2.6965000000000003
Ba3V2H12(C5O14)2,0.021399999999999975
Ba3V2Ni6(AsO6)4,3.1805000000000003
Ba3V2Ni6(PO6)4,3.1273999999999997
Ba3V2O8,3.7465
Ba3V2P6(HO4)6,1.8232999999999997
Ba3V2S4O3,0.42390000000000017
Ba3V3N5,0.0
Ba3V4(PO4)6,2.0378999999999996
Ba3V4CoO14,0.0
Ba3V4O13,2.8034
Ba3V4PbO14,3.1539
Ba3V4ZnO14,3.0524999999999998
Ba3VN3,0.0
Ba3VO5,1.2467000000000001
Ba3W2O9,3.3742
Ba3WCl2O5,3.9374
Ba3WN3,0.0
Ba3WN4,1.9649999999999999
Ba3WN4,1.5479000000000003
Ba3WO6,3.1513999999999998
Ba3WO6,2.9798
Ba3WO6,2.3200000000000003
Ba3Y(BO2)9,5.1876999999999995
Ba3Y(BO3)3,3.8152999999999997
Ba3Y2(B2O5)3,4.525
Ba3Y2Br12,3.5444
Ba3Y2Br12,3.3499
Ba3Y2Br12,4.0607
Ba3Y2Cl12,4.4715
Ba3Y2Cl12,4.3508
Ba3Y2Cl12,4.1287
Ba3Y2Cu2PtO10,0.0
Ba3Y2F12,6.8431999999999995
Ba3Y2F12,6.4256
Ba3Y2MoO9,1.569
Ba3Y2N4,0.6835
Ba3Y2O6,2.2427
Ba3Y2O6,2.5398
Ba3Y2WO9,2.3881
Ba3Y3Cu3O10,0.0
Ba3Y3N5,1.1798000000000002
Ba3Y4(NiO5)3,0.0
Ba3Y4O9,3.3201
Ba3Y4O9,3.373
Ba3Y5(CoO5)3,1.1946999999999997
Ba3Y5(CuO5)3,0.13640000000000008
Ba3Y5(NiO5)3,0.0
Ba3YF9,6.227799999999999
Ba3YI9,2.8352999999999997
Ba3YI9,2.6474
Ba3YIr2O9,0.0
Ba3YIrRuO9,0.0
Ba3YRu2O9,0.0
Ba3YRuPtO9,0.21550000000000002
Ba3Zn2B3O9F,3.3810999999999996
Ba3Zn3Te(PO7)2,2.8907000000000003
Ba3Zn5In2O11,1.6191
Ba3Zn6Si4TeO20,2.6456000000000004
Ba3ZnB5PO14,4.8405000000000005
Ba3ZnHg10,0.0
Ba3ZnIr2O9,0.0
Ba3ZnIrRuO9,0.0
Ba3ZnN2O,0.4216000000000002
Ba3ZnRu2O9,0.0
Ba3ZnSb2O9,1.9684999999999997
Ba3Zr2O7,3.0246000000000004
Ba3Zr2S7,0.4914999999999998
Ba3Zr2S7,0.8273999999999999
Ba3Zr2S7,0.4979
Ba3Zr6BeCl18,0.7706
Ba3ZrF10,5.7721
Ba3ZrIr2O9,0.0
Ba3ZrNb4O15,2.2437000000000005
Ba3ZrNb5O12,0.0
Ba3ZrRu2O9,0.0
Ba3ZrTa4O15,2.4404
Ba4(NbSe4)3,0.0
Ba4(PtO3)3,1.5953000000000004
Ba4(PtO3)3,1.5671000000000004
Ba4(Sn3Bi)3,0.0
Ba4Ag3Ge20,0.0
Ba4AgAuO6,1.8623000000000003
Ba4Al(IrO5)2,0.0
Ba4Al2O7,3.5745
Ba4Al3Cu2F21,0.6525000000000001
Ba4Al5,0.0
Ba4As2O,0.6692999999999998
Ba4As3,0.0
Ba4B10Cl2O19,0.0
Ba4B2N4O,2.8023999999999996
Ba4Bi(IrO4)3,0.0
Ba4Bi(PbO4)3,0.30709999999999926
Ba4Bi(PbO4)3,0.48689999999999944
Ba4Bi(PbO4)3,0.0
Ba4Bi2O,0.3278000000000003
Ba4Bi3,0.0
Ba4Bi3F17,4.9991
Ba4Bi3O11,0.0
Ba4Bi3PbO12,0.0
Ba4Br6O,4.1652
Ba4Br6O,3.6339
Ba4Br6O,3.3563
Ba4CN4,1.3090000000000002
Ba4Ca(BiO4)3,0.0
Ba4Ca(RhO3)4,0.0
Ba4Ca4Cu6Hg2O17,0.0
Ba4Ca4Tl3Cu6O19,0.0
Ba4CaCr4Cu2F28,0.2097
Ba4CaCu2CO9,0.1347999999999998
Ba4CaFe4Cu2F28,0.08429999999999982
Ba4CaMn2MoO12,0.0
Ba4CaNd3(Co4O11)2,0.0
Ba4CaTi5O15,1.7146999999999997
Ba4CaV4Cu2F28,0.9638
Ba4CaZr5O15,3.0906000000000002
Ba4CaZr5O15,3.0705
Ba4CaZr5O15,3.0277
Ba4CaZr5O15,3.1377
Ba4Cd11Ge12,0.0
Ba4Ce(CuO3)3,0.6774999999999998
Ba4Ce(RuO4)3,0.0
Ba4Ce2BiO12,0.0
Ba4Ce2In2O11,2.0237
Ba4Ce2O7,0.0
Ba4CeEu3Tl2(Cu2O9)2,0.0
Ba4CeMn3O12,1.9704000000000002
Ba4Cl6O,4.3647
Ba4Co(ReO6)2,1.536
Ba4CoN4,0.0
Ba4CoNi3S8,0.0
Ba4Cr13O28,0.0
Ba4Cr2MoWO12,0.0
Ba4CrGa2(S3F2)2,2.1491000000000002
Ba4Cu11(Te4S)2,0.0
Ba4Cu2IBrO4,2.2079000000000004
Ba4Cu2Si21,0.0
Ba4Cu3BrO6,0.0
Ba4Cu3Ge20,0.0
Ba4Cu3IO12,0.001100000000000101
Ba4Cu3MoO12,0.0
Ba4Cu3PbO9,0.0
Ba4Cu3ReO12,0.0
Ba4Cu3SeO12,0.0
Ba4Cu3SeO6,0.0
Ba4Cu3Si20,0.0
Ba4Cu3SnO9,0.0
Ba4Cu8P15,0.0
Ba4Dy(CuO3)3,0.0
Ba4Dy2Cu6NiO15,0.0
Ba4Er(RuO4)3,0.0
Ba4Er3F17,6.4909
Ba4Eu2Cu6O13,0.0
Ba4Eu4Zn3PtO15,0.06119999999999992
Ba4Fe12Si8ClO35,1.7846000000000006
Ba4Fe2S4I5,0.0
Ba4Fe3(S3F2)2,1.2306
Ba4Fe3Se10,0.0
Ba4Fe4O11,0.0
Ba4Fe9O20,0.0
Ba4Ga22Sn,0.0
Ba4Ga2Fe(S3F2)2,2.4483
Ba4Ga2O7,3.2427
Ba4Ga2S7,2.6355000000000004
Ba4Ga3Ge20,0.0
Ba4Ga3Si20,0.0
Ba4Ga4SnSe12,1.3292000000000002
Ba4Ga5AgSe12,1.5706
Ba4GaB10H7O24,4.3361
Ba4GaN3O,1.1839
Ba4GaSn3,0.0
Ba4Gd(CuO3)3,0.0
Ba4Gd2Cd3S10,0.6451000000000002
Ba4GdY(Cu3O7)2,0.0
Ba4Ge20Au3,0.0
Ba4Ge20Pd3,0.0
Ba4Ge20Pt3,0.0
Ba4Ge23,0.0
Ba4Ge2Pb(S4Br)2,2.0766999999999998
Ba4Ge2Pb(Se4Br)2,1.3865
Ba4Ge2Te5Se3,0.7326000000000001
Ba4GeAs4,0.8233999999999999
Ba4GeN4,1.0221999999999998
Ba4GeP4,1.0143999999999997
Ba4Hf3O10,3.3987000000000003
Ba4Hf3S10,0.5937000000000001
Ba4HfO6,3.0638000000000005
Ba4Ho(CuO3)3,0.0
Ba4Ho(RuO4)3,0.0
Ba4I6O,3.9787000000000003
Ba4In2O7,0.0
Ba4In2O7,1.3670999999999998
Ba4In2Te2S5,2.0642
Ba4In2Te2Se5,1.8432999999999997
Ba4In6O13,0.4417
Ba4InAgS6,1.6864
Ba4InSbO8,2.4138
Ba4Ir3O10,0.0
Ba4IrN4,0.0
Ba4IrO6,0.0
Ba4La(RuO4)3,0.0
Ba4La2Cu6O13,0.0
Ba4La2SbRuO12,0.7580999999999998
Ba4La2Ti3Nb2O18,2.1891000000000003
Ba4La4Co8O17,0.0
Ba4La4Co8O23,0.0
Ba4La4Cu4(BO6)3,0.43820000000000014
Ba4La6Mn(Co3O10)3,0.0
Ba4La6Mn5In5O30,0.0
Ba4La8Mn11SnO36,0.0
Ba4LaGe3SbSe13,0.9685999999999999
Ba4LaPr(Cu3O7)2,0.0
Ba4LaTi4CrO15,1.3340000000000005
Ba4LaTiNb3O15,2.4743000000000004
Ba4LaTiNb3O15,2.5928000000000004
Ba4Li(BN2)3,2.4764
Ba4Li(BiO4)3,0.5661
Ba4Li(GeO3)4,0.0
Ba4Li(GeO3)4,0.2366999999999999
Ba4Li(IrO4)3,0.0
Ba4Li(RhO3)4,0.0
Ba4Li(SbO4)3,1.4543999999999997
Ba4Li2(CdAs2)3,0.3498999999999999
Ba4Li2(CdP2)3,0.48530000000000006
Ba4Li4Ti19O44,2.3023
Ba4Li4Ti19O44,2.2457000000000003
Ba4Li6Ti19O44,0.0
Ba4LiBi3O11,0.0
Ba4LiCu(CO5)2,0.9264999999999999
Ba4LiGa5Se12,1.7354
Ba4LiMo2N7,1.5654
Ba4LiNb3O12,2.5797999999999996
Ba4LiNb3O12,2.0531
Ba4LiTa3O12,3.1132999999999997
Ba4LiW2N7,1.763
Ba4LiY2Cu5O14,0.0
Ba4Lu6O13,2.5667999999999997
Ba4Lu6O13,2.5346
Ba4Mg(BiO4)3,0.2362000000000002
Ba4Mg(Co2O5)2,0.3535999999999997
Ba4Mg(Co2O5)2,0.0
Ba4Mg(CuO2)4,0.0
Ba4Mg(CuO2)4,0.012600000000000389
Ba4Mg(Fe2O5)2,1.4015
Ba4Mg(Fe2O5)2,0.3057000000000003
Ba4Mg(Fe2O5)2,1.3638000000000003
Ba4Mg(GeO3)4,2.3638000000000003
Ba4Mg(RhO3)4,0.0
Ba4Mg(SiN3)2,1.5934999999999997
Ba4MgC4(N4F)2,3.7144000000000004
Ba4MgCo(ReO6)2,0.0
Ba4MgMn4(P2O7)4,1.0457
Ba4MgMn4(P2O7)4,1.3304999999999998
Ba4MgTa10O30,2.4682000000000004
Ba4MgTi3O10,0.0
Ba4MgTl8O16,0.0
Ba4MgTl8O16,0.04499999999999993
Ba4Mn2Ag2As4O17,0.0
Ba4Mn3O10,0.0
Ba4MnGa2(S3F2)2,2.9405
Ba4MnIn2(S3F2)2,2.0034
Ba4MnN4,0.0
Ba4Na(BN2)3,2.0441
Ba4Na(BO3)3,3.9839
Ba4Na(BiO4)3,0.2816000000000001
Ba4Na(FeAs)10,0.0
Ba4Na(IrO4)3,0.0
Ba4Na(RuO4)3,0.0
Ba4Na(SbO4)3,1.5158000000000005
Ba4Na2CaTi3Si4(SO13)2,2.1206000000000005
Ba4Na2W2O11,3.6266
Ba4Na3Nd3P6(O12F)2,4.8457
Ba4NaAl2B8(BrO6)3,3.9082999999999997
Ba4NaAl2B8(ClO6)3,4.7156
Ba4NaAuO8,1.4165999999999999
Ba4NaB10Cl(O9F)2,5.2856
Ba4NaCu(CO5)2,1.0292
Ba4NaGa2B8(BrO6)3,3.4734
Ba4NaGa2B8(ClO6)3,4.4547
Ba4NaGe3S10Cl,1.8421
Ba4NaMn2O9,0.0
Ba4Nb14O23,0.0
Ba4Nb2(OF4)3,3.3527
Ba4Nb25O40,0.0
Ba4Nb2O9,3.5089
Ba4Nb2O9,2.9081
Ba4Nb2WO12,2.7361000000000004
Ba4Nb3O12,0.0
Ba4NbCo2MoO12,0.0
Ba4NbFeO8,2.6971
Ba4Nd(IrO4)3,0.0
Ba4Nd(RuO4)3,0.0
Ba4Nd2Cd3Se10,1.5191
Ba4Nd2Cu2O9,0.0
Ba4Nd2Cu6NiO15,0.0
Ba4Nd2Cu6O13,0.0
Ba4Nd3F17,6.347799999999999
Ba4Nd4Ti3Mn(Cu2O11)2,0.0
Ba4Nd4Zn3PtO15,2.4838
Ba4Nd5Cu9O22,0.0
Ba4Nd7Si12BN27,0.0
Ba4Nd8Cu3PtO20,0.8457000000000003
Ba4NdMn3O12,0.0
Ba4NdY(CuO2)8,0.0
Ba4Ni3Ge20,0.0
Ba4OF6,3.6156
Ba4OF6,3.6833
Ba4Os6ClO18,0.0
Ba4P15Au8,0.0
Ba4P2O,1.0411000000000001
Ba4P3,0.7464
Ba4P3HF24,6.0339
Ba4Pb3O10,0.0
Ba4Pd,0.0605
Ba4Pd3BrO6,0.0
Ba4PdO6,1.2730000000000001
Ba4Pr(RuO4)3,0.0
Ba4Pr2(Cu2O5)3,0.0
Ba4Pr2Cu6O13,0.0
Ba4Pr3BiO12,0.0
Ba4Pr4Co8O23,0.0
Ba4Pr4Fe4Cu4O21,0.07240000000000002
Ba4Pr7Si12BN27,0.0
Ba4PrDy(Cu3O7)2,0.0
Ba4PrEr(Cu3O7)2,0.0
Ba4PrEu(Cu3O7)2,0.0
Ba4PrGd(Cu3O7)2,0.0
Ba4PrHo(Cu3O7)2,0.0
Ba4PrLu(Cu3O7)2,0.0
Ba4PrMn3O12,0.0
Ba4PrNd(Cu3O7)2,0.0
Ba4PrSm(Cu3O7)2,0.0
Ba4PrTm(Cu3O7)2,0.0
Ba4PrY(Cu3O7)2,0.0
Ba4PrY(CuO2)8,0.0
Ba4Pt,0.0
Ba4PtO6,1.8103999999999996
Ba4Re2NiO12,1.8907000000000003
Ba4Rh,0.0
Ba4Ru3O10,0.0
Ba4RuN4,0.0
Ba4Sb2O,0.6382000000000003
Ba4Sb2O9,2.8294
Ba4Sb4Se11,1.1383999999999999
Ba4Sc2Cu2O9,0.5834000000000001
Ba4ScReWO12,1.8841
Ba4ScTi4BiO15,1.8951000000000002
Ba4Si20Au3,0.0
Ba4Si21Au2,0.0
Ba4Si22Au,0.0
Ba4Si23,0.0
Ba4Si3Br2,0.3695000000000004
Ba4SiAs4,0.9863
Ba4SiGeS8,2.4472
Ba4SiP4,1.0896000000000003
Ba4SiSb2Se11,0.8874
Ba4Sm(CuO3)3,0.0
Ba4Sm(RuO4)3,0.0
Ba4Sm2Cd3S10,1.8925999999999998
Ba4Sm2Cu2O9,0.0
Ba4Sm3Cl16,0.0
Ba4Sm4Zn3PtO15,2.4891000000000005
Ba4Sm7Si12BN27,0.0
Ba4Sn3O10,1.1901000000000002
Ba4Sn3O10,2.7237999999999998
Ba4SnGe2(S4Br)2,1.9955
Ba4SnN4,0.6517
Ba4Sr(FeO3)5,0.0
Ba4Sr(SnO3)5,0.5276000000000005
Ba4Sr(SnO3)5,0.5893999999999995
Ba4Sr2Dy2Co4O15,1.3518999999999997
Ba4Sr2Gd2Co4O15,0.6201999999999996
Ba4Sr2La2Co4O15,1.4232000000000005
Ba4Sr2Lu3(BiO6)3,1.0072
Ba4Sr2Nd2Co4O15,1.3891
Ba4Sr2Sm2Co4O15,1.3519
Ba4Sr2Y3(SbO6)3,3.9096
Ba4Sr4Co3(CuO4)5,0.005300000000000082
Ba4Sr4Co3Cu5O24,0.0
Ba4Sr4CoCu7O24,0.0
Ba4SrHf5O15,3.5925999999999996
Ba4SrRe3ClO15,2.4594
Ba4Ta10CoO30,2.4312000000000005
Ba4Ta10FeO30,2.0406999999999997
Ba4Ta10NiO30,0.0
Ba4Ta2O9,3.8783000000000003
Ba4Ta2O9,3.9585
Ba4Ta2O9,3.2862
Ba4Ta2O9,3.5999
Ba4Ta2TiZnO12,1.2891999999999997
Ba4Ta2TiZnO12,2.2354
Ba4Tb(RuO4)3,0.0
Ba4Tb2Cd3S10,1.9183999999999997
Ba4Ti(CuO3)3,0.28480000000000016
Ba4Ti11O26,2.5309
Ba4Ti11O26,2.4641
Ba4Ti11O26,2.2304000000000004
Ba4Ti12O27,0.0
Ba4Ti13O30,2.5294999999999996
Ba4Ti2PtO10,1.9973
Ba4Ti3O10,1.8652999999999995
Ba4Ti3O10,2.0772
Ba4Ti3PtO12,0.9918000000000005
Ba4Ti4O9,0.0
Ba4Ti5PbO15,1.7552000000000003
Ba4Ti6Si4O25,0.0
Ba4TiAl3P4(O5F)4,0.0
Ba4TiAs4,1.0497999999999998
Ba4TiN4,0.8544000000000005
Ba4TiNb9O18,0.0
Ba4TiP4,1.0679000000000003
Ba4TiSi12(SnO12)3,3.2599
Ba4Tl13Hg3,0.0
Ba4Tl2Cu2HgO10,0.0
Ba4Tl4Cu2O11,0.0
Ba4TlBiPb2O9,0.0
Ba4Tm2Cu6O13,0.0
Ba4Tm6O13,2.529
Ba4U8As2O33,1.5822999999999998
Ba4UCr2S9,0.0
Ba4USe6,0.0
Ba4VN4,0.16610000000000014
Ba4W(N2Cl)2,2.2089000000000003
Ba4Y(CuO3)3,0.0
Ba4Y2Cu4W2O17,0.0
Ba4Y2Cu5O14,0.0
Ba4Y2Cu5PdO14,0.0
Ba4Y2Cu6NiO15,0.0
Ba4Y2Cu6O13,0.0
Ba4Y2Cu7O15,0.3136000000000001
Ba4Y2Cu7O15,0.0
Ba4Y2Fe2O11,0.0
Ba4Y2FeCu5O14,0.0
Ba4Y2O7,2.3403
Ba4Y3F17,6.6616
Ba4YCu(WO6)2,0.3197000000000001
Ba4Zn11Ge12,0.0
Ba4Zn2CuGe20,0.0
Ba4Zn4B14Pb2O31,3.6651999999999996
Ba4Zn4B14Pb2O31,3.6902
Ba4Zn4B14Pb2O31,3.6828
Ba4Zr(RuO4)3,0.0
Ba4Zr3S10,0.41670000000000007
Ba4Zr3TiO12,1.7076000000000002
Ba4ZrN4,0.8917000000000002
Ba4ZrNb9O18,0.0
Ba4ZrO6,3.1542000000000003
Ba5(CN3)2,0.7318000000000002
Ba5(FeN2)2,0.0
Ba5(FeS2)9,0.0
Ba5(Ga2Se5)2,2.0136000000000003
Ba5(Ga3H)2,0.37349999999999994
Ba5(Ga3O7)2,2.7217000000000002
Ba5(GaS4)2,2.5327
Ba5(GaSe4)2,1.8701
Ba5(GeN3)2,1.4705
Ba5(IO6)2,2.4411
Ba5(In2Sb3)2,0.4508000000000001
Ba5(InSb3)2,0.0
Ba5(RuO5)2,0.22809999999999997
Ba5(Si2O7)2,0.30800000000000005
Ba5(SiN3)2,1.4009
Ba5(Sn3Bi2)3,0.0
Ba5(SnS4)2,0.8726000000000003
Ba5(TiN3)2,1.4748000000000006
Ba51(Pd12O5)2,0.0
Ba5Al2Ge7,0.0
Ba5Al2In2IrClO13,0.0
Ba5Al3F19,6.9003000000000005
BaCr2AsO10,0.0
BaCr2O4,2.2386
BaCr2O7,2.3810000000000002
BaCr4S7,0.030300000000000438
BaCrCdF7,4.103
BaCrF5,3.5561000000000003
BaCrF6,0.0
BaCrF7,0.0
BaCrInWO6,0.18240000000000034
BaCrN2,0.0
BaCrO3,0.0
BaCrO4,2.9675000000000002
BaCrO4,2.9695
BaCrP2O7,3.0648000000000004
BaCrS2,0.0
BaCrSnBiO6,0.9540999999999995
BaCu,0.0
BaCu(SeO3)2,0.0
BaCu(Si2O5)2,0.8549000000000002
BaCu(SiO3)2,0.6126999999999998
BaCu(SiO3)2,0.6395000000000004
BaCu(SiO3)2,0.01059999999999972
BaCu(SiO3)2,0.0
BaCu(SiO3)2,3.0529
BaCu13,0.0
BaCu2(AgO2)2,0.0
BaCu2(AsO4)2,0.0
BaCu2(HgO2)2,1.1949
BaCu2(PO4)2,0.3255000000000001
BaCu2Ge2O7,0.21399999999999997
BaCu2Ge3(HO5)2,0.5791
BaCu2GeS4,0.9735999999999998
BaCu2GeSe4,0.3567
BaCu2P2H2O9,0.008000000000000007
BaCu2Si2O7,0.0
BaCu2SnS4,0.38429999999999964
BaCu2SnSe4,0.45299999999999985
BaCu2Te2(ClO3)2,0.0
BaCu3O4,0.0
BaCu4S3,0.030799999999999272
BaCu4S3,0.4519000000000002
BaCu5AgP2,0.0
BaCu6(GeS4)2,1.0465999999999998
BaCu6Te6S,0.4671000000000003
BaCu6Te6Se,0.4773999999999994
BaCu9Ge4,0.0
BaCu9Si4,0.0
BaCu9Sn4,0.0
BaCuAs,0.0
BaCuAs2O7,0.0
BaCuB2O5,0.5047000000000001
BaCuBi,0.0
BaCuCO3F2,0.4303000000000001
BaCuF4,0.0
BaCuGe,0.0
BaCuH12(C2O7)2,0.00360000000000002
BaCuN,0.0
BaCuO2,0.19200000000000017
BaCuO2,0.0
BaCuO2,0.2831999999999999
BaCuO3,0.0
BaCuP,0.0
BaCuP2O7,0.0
BaCuPClO4,0.46499999999999986
BaCuRu5O11,0.0
BaCuS2,0.0
BaCuSF,1.6223
BaCuSb,0.0
BaCuSeF,1.4265000000000003
BaCuSn2,0.0
BaCuTe2O7,0.0
BaCuTeF,0.9884000000000004
BaDy2CoO5,1.3935000000000004
BaDy2CoO5,1.8435999999999995
BaDy2CuO5,0.0
BaDy2MnO5,1.6966999999999999
BaDy2NiO5,2.1397999999999997
BaDy2O4,3.5607
BaDy2PdO5,1.7855999999999996
BaDy2Si3O10,4.8053
BaDy2ZnO5,3.0569
BaDyCo4O7,0.0
BaDyCuTe3,0.5186000000000002
BaDyFe2O5,0.6835000000000004
BaDyFe2O5,0.0
BaDyFe4O7,0.0
BaDyFe4O7,1.7414
BaDyFeCuO5,0.0
BaDyNbSnO6,1.9703999999999997
BaDyNbSnO6,1.7764000000000002
BaDyNbSnO6,2.4437
BaDyO3,0.0
BaDySnSbO6,2.6502000000000003
BaDySnSbO6,2.3335
BaDySnSbO6,2.5012999999999996
BaDyTi4O12,0.0
BaEr2CoO5,1.3642999999999996
BaEr2CoO5,1.3114999999999997
BaEr2CuO5,0.0
BaEr2F8,7.215
BaEr2NiO5,2.1574999999999998
BaEr2O4,3.6265
BaEr2Si3O10,4.8348
BaEr2ZnO5,3.0633
BaEr4Si5O17,4.782
BaErAgS3,0.9827999999999997
BaErAgSe3,1.3771
BaErAl3SiN4O3,2.6118999999999994
BaErCuS3,1.1574999999999998
BaErCuSe3,0.9489000000000005
BaErFe4O7,0.0
BaErMn2O5,0.0
BaErO3,0.0
BaEu(WO3)2,0.0
BaEu2CoO5,0.0
BaEu2CuO5,0.0
BaEu2Mn2O7,0.0
BaEu2NiO5,0.0
BaEu2O4,0.0
BaEu2PdO5,0.0
BaEu2PtO5,0.0
BaEu2Sc2O7,0.0
BaEu2ZnO5,0.0
BaEu3,0.0
BaEuBiSbO6,0.0
BaEuBiSbO6,0.09440000000000026
BaEuCrSnO6,0.0
BaEuDySbO6,0.40859999999999985
BaEuDySbO6,0.009699999999999598
BaEuDySnO6,0.0
BaEuDyWO6,0.10350000000000037
BaEuDyWO6,0.0
BaEuFe2O5,0.0
BaEuFeBiO6,0.0
BaEuFeCuO5,0.0
BaEuHfNbO6,0.0
BaEuHfSnO6,0.4308000000000005
BaEuHfZrO6,0.42659999999999965
BaEuInBiO6,0.0
BaEuInWO6,0.0
BaEuNbBiO6,0.08919999999999995
BaEuNbBiO6,0.08769999999999989
BaEuNbBiO6,0.8959000000000001
BaEuNbInO6,0.681
BaEuNbSbO6,0.12560000000000038
BaEuNbSbO6,0.1988000000000003
BaEuNbSnO6,0.0
BaEuO2,0.0
BaEuO3,0.0
BaEuS2,0.033500000000000085
BaEuSnBiO6,0.0
BaEuSnWO6,0.13860000000000028
BaEuSnWO6,0.06309999999999949
BaEuTiBiO6,0.0
BaEuV4O12,0.0
BaEuVSnO6,0.0
BaEuYBiO6,0.0
BaEuYSbO6,0.05989999999999984
BaEuYSbO6,0.42900000000000027
BaEuYSnO6,0.0
BaEuYVO6,0.06920000000000037
BaEuYWO6,0.0
BaEuYWO6,0.14949999999999974
BaEuZr2O6,0.22419999999999973
BaEuZr2O6,0.23850000000000016
BaEuZr2O6,0.30020000000000024
BaEuZrNbO6,0.0
BaEuZrSnO6,0.7465000000000002
BaF2,6.6029
BaF2,6.855300000000001
BaF2,5.9306
BaF3,0.0
BaFe(Si2O5)2,3.6492000000000004
BaFe(Si2O5)2,3.5786
BaFe(Si2O5)2,3.4808000000000003
BaFe12O19,1.1864
BaFe12O19,1.2163
BaFe2(P2O7)2,1.7887
BaFe2(P2O7)2,2.1640999999999995
BaFe2(PO4)2,2.1328
BaFe2(PO4)2,3.5212
BaFe2(PO4)2,3.605
BaFe2(SeO3)4,1.8294000000000001
BaFe2F7,1.8116999999999999
BaFe2P2O7F2,1.6729
BaFe2P4H4O17,0.9647
BaFe2PbO5,1.3233000000000001
BaFe2S2O,0.0
BaFe2S2O,2.1256999999999997
BaFe2S3,0.0
BaFe2Se3,0.0
BaFe2Si2O7,0.0
BaFe3(PO4)3,1.1157
BaFe3Si4SO11,1.2626999999999997
BaFe4O7,0.0
BaFe4Sn2O11,1.6460999999999997
BaFe4Sn2O11,1.6971000000000003
BaFe5Bi4O15,0.0
BaFeAs2Ru,0.0
BaFeBP2O9,1.7888
BaFeCoPbO5,0.0
BaFeCuF7,0.3700000000000001
BaFeCuF7,0.11820000000000008
BaFeCuPb2ClO5,0.0
BaFeF4,3.3521
BaFeF5,3.7113
BaFeF5,3.5907
BaFeO2F,0.4455
BaFeO3,0.0
BaFeO4,1.4122999999999999
BaFeP(O2F)2,2.2199
BaFeP3H2O11,2.6170999999999998
BaFePHO5,2.9849999999999994
BaGa12O19,1.9291
BaGa2,0.0
BaGa2(GeO4)2,3.2464999999999997
BaGa2(GeO4)2,3.2617
BaGa2(SiO4)2,4.0084
BaGa2B2O7,3.9841999999999995
BaGa2GeS6,2.7662999999999998
BaGa2GeSe6,1.9186
BaGa2SiS6,3.0907
BaGa2SiSe6,2.3893999999999997
BaGa3Sn,0.0
BaGa4,0.0
BaGa4O7,3.4333
BaGa4S7,2.5800000000000005
BaGa4Se7,1.4955999999999998
BaGaB4H3O10,4.976
BaGaB4H3O10,5.0726
BaGaBO3F2,4.9696
BaGaCu2,0.0
BaGaF5,5.7568
BaGaGe,0.0
BaGaGeH,0.06610000000000005
BaGaH4,0.0
BaGaH5,3.2255
BaGaH5,3.1292
BaGaSi,0.0
BaGaSiH,0.47920000000000007
BaGaSn,0.0
BaGaSnH,0.0524
BaGd(CoO3)2,0.0
BaGd2CoO5,0.0
BaGd2CuO5,0.37729999999999997
BaGd2Mn2O7,0.0
BaGd2NiO5,0.9400000000000004
BaGd2O4,2.8146000000000004
BaGd2PdO5,0.027500000000000302
BaGd2PtO5,2.0430000000000006
BaGd2Sc2O7,2.9688000000000003
BaGd2Si3O10,0.14579999999999993
BaGd2ZnO5,2.6449
BaGdAuSe3,0.8572000000000002
BaGdCl5,1.9979
BaGdCo2O5,0.0
BaGdCrFeO6,0.0
BaGdCuBO5,0.0
BaGdCuS3,1.0862000000000003
BaGdCuSe3,0.8826
BaGdCuTe3,0.5030999999999999
BaGdFe2O5,0.0
BaGdFe4O7,1.6574999999999998
BaGdInWO6,1.6715000000000004
BaGdInWO6,1.2633000000000005
BaGdNbSnO6,1.6839
BaGdNbSnO6,1.7018999999999997
BaGdNbSnO6,2.1665
BaGe,0.0
BaGe(AsO4)2,2.7087
BaGe(PO4)2,4.1615
BaGe(S2O7)3,3.9450000000000003
BaGe2,0.5255000000000001
BaGe2,0.0
BaGe2Au5,0.0
BaGe2O5,1.8132000000000001
BaGe2O5,2.7735000000000003
BaGe2S5,2.1837
BaGe3,0.0
BaGe3Ir,0.0
BaGe3O8,0.0
BaGe3Pd,0.0
BaGe3Pt,0.0
BaGe3Rh,0.0
BaGe4(RhS3)2,1.4674000000000005
BaGe4O9,3.0267
BaGe4O9,3.0551
BaGe5,0.0
BaGe6,0.0
BaGe7N10,2.1552000000000002
BaGeAu3,0.0
BaGeF6,5.6043
BaGeN2,2.4829
BaGeO3,3.5519
BaGePbO4,3.4303
BaGePt,0.0
BaGeS3,2.4497
BaH2,1.6461000000000001
BaH2,2.8697
BaH2(CO2)2,4.1704
BaH2(CO2)2,4.6763
BaH2(SO4)2,5.5546999999999995
BaH2Br2O7,4.1725
BaH2C2O5,3.1849
BaH2CSNClO,4.8714
BaH2Cl2O,5.05
BaH2Cl2O7,5.1842999999999995
BaH2I2O7,3.6607000000000003
BaH2N2O5,2.3958
BaH2N2O5,2.3701
BaH2PdN4O9,2.0568
BaH3C3O7,2.7691
BaH3IO6,1.9605
BaH4(BrO)2,4.3426
BaH4(CO2)3,4.6433
BaH4(CO3)2,3.4081
BaH4(ClO)2,5.4568
BaH4(IO)2,3.6583000000000006
BaH4O3,4.2591
BaH4O3,4.2073
BaH4O3,3.9287
BaH4O3,3.9419
BaH5BrO3,4.7616
BaH5ClO3,4.9758000000000004
BaH6(C2O5)2,3.1456
BaH6C2N4O5,4.3081
BaH6C2S2N2O3,4.1044
BaH6C2SNO5,3.5841000000000003
BaH6C4O7,2.6483
BaH6Cl2O11,5.297000000000001
BaH6F8,7.5667
BaH8(IO6)2,1.9917999999999998
BaH8C6(N3O4)2,4.5878
BaH8O5,4.8099
BaH8PtC4(NO)4,1.835
BaH8PtC4(NO)4,1.5012
BaH9IO5,3.5202
BaHBr,3.2113
BaHBrO,4.2077
BaHCl,3.4827000000000004
BaHClO,4.8576
BaHI,2.8110999999999997
BaHIO,3.9361999999999995
BaHf(BO3)2,4.7103
BaHf(PO4)2,4.9273
BaHf(SiO3)3,4.6887
BaHfF6,7.123200000000001
BaHfInSbO6,0.7294
BaHfMg14,0.0
BaHfMg30O32,0.26569999999999894
BaHfMg30O32,0.0
BaHfN2,1.2537000000000003
BaHfNbInO6,0.6227999999999998