formula,band_gap
CuAsS,0.0
CuAsSe,0.0
CuAsSe,0.0041999999999999815
CuAsSe2,0.0
CuAsSe2,0.32200000000000006
CuAsSe2,0.045399999999999885
CuAu,0.0
CuAu3,0.0
CuAu4,0.0
CuAuClO2,0.0
CuAuF5,0.0
CuAuO2,0.0
CuAuSe4,0.0
CuB2(PbO3)2,0.0
CuB2P2(HO2)6,1.206
CuB4O7,0.19350000000000023
CuBH4ClO4,0.17759999999999998
CuBIr,0.0
CuBP4H24C8(SF)4,3.1191
CuBS2,1.7424999999999997
CuBSe2,1.487
CuBi,0.0
CuBi(PO4)2,0.0
CuBi(PSe3)2,0.41990000000000016
CuBi(PSe3)2,0.6399000000000004
CuBi(WO4)2,1.2814
CuBi(WO4)2,1.3224999999999998
CuBi2(SeO3)4,0.0
CuBi2(SeO3)4,0.30180000000000007
CuBi2Se3O11,0.0
CuBi3PbS6,0.5566000000000004
CuBi3PbS6,0.6635999999999997
CuBi3PbS6,0.6246999999999998
CuBi5PbS9,0.6023000000000005
CuBi5S8,0.25200000000000067
CuBiO2,0.6017999999999999
CuBiO2,0.6272000000000002
CuBiO3,0.0
CuBiO4,0.016300000000000203
CuBiPbS3,0.6137000000000006
CuBiPtS3,0.5360999999999994
CuBiS2,0.4640000000000004
CuBiSCl2,0.6432000000000002
CuBiSe2,0.0
CuBiSeO,0.3006000000000002
CuBiTeO,0.0
CuBr,0.48709999999999987
CuBr,0.9962
CuBr,0.17020000000000035
CuBr,0.43210000000000015
CuBr,0.4449000000000001
CuBr,0.2019000000000002
CuBr2,0.0
CuBrO2,0.0
CuBrO2,0.44210000000000005
CuBrO2,0.3076
CuC2S2(OF)6,0.0
CuC3(OF)3,2.789
CuCClO,2.3871
CuCN2,0.0
CuCO3,0.0
CuCSN,2.4001
CuCSN,2.0694999999999997
CuCSN,1.8558
CuCl,0.5736000000000003
CuCl,0.5569000000000002
CuCl,0.5646
CuCl,0.4510000000000005
CuCl,0.3260999999999994
CuCl2,0.0
CuCl3,0.0
CuCl4,0.0
CuClF10,0.0
CuClO,0.25759999999999983
CuClO,0.046699999999999964
CuClO2,0.6614
CuClO2,0.6198
CuClO2,0.0
CuF2,0.0
CuGe2N3,0.6942999999999993
CuGe2P3,0.0
CuGe5Pb3O14,0.6287000000000003
CuGeO3,0.20409999999999995
CuGeO3,0.0
CuGeO3,0.44750000000000023
CuGePSe,0.0
CuGeRh2,0.0
CuH,0.0
CuH,0.5729000000000006
CuH10(CO4)2,0.0
CuH10(ClO6)3,0.0
CuH10C2(NCl2)2,0.23410000000000009
CuH10SO9,0.0
CuH10SeO9,0.09620000000000001
CuH11C4(NO5)2,0.6234000000000001
CuH11C5NO6,0.8291999999999999
CuH11C6NO5,0.4216
CuH12(IN)4,0.7524000000000001
CuH12(NO6)2,0.2369
CuH12Br4(NO)2,0.4456
CuH12C3S3BrN6,2.7517
CuH12C3S3IN6,2.7435
CuH12C3S3N6Cl,2.7636000000000003
CuH12C3SN6O7,0.5916999999999999
CuH12C4(NO)6,0.0
CuH12C5S4N,1.1785
CuH12C5S4N,1.6568999999999998
CuH12C6(Br3N2)2,0.5546
CuH12C6(S2N)2,0.09129999999999994
CuH12CN6Cl4O,0.6396
CuH12N2(Cl2O)2,0.6548
CuH12N2(Cl2O)2,0.6943
CuH12N2(Cl2O)2,0.5328999999999999
CuH12N2(OF2)2,0.7082
CuH12N2(OF2)2,0.21710000000000002
CuH12N2(OF2)2,0.011300000000000004
CuH12Pt(CN2)4,1.0337
CuH14C3NCl3O2,0.6228
CuH14C3S3N6ClO,2.7848
CuH14C4(NO2)4,0.2589
CuH16(ClO8)2,0.0
CuH16(IO8)2,0.5665
CuH16C4(N5O)2,1.5498
CuH18C4N10(ClO)2,1.5332
CuH18C6(SeCl2)2,0.6891
CuH18PdC4N4O11,1.1055000000000001
CuH2(SeO3)2,0.0
CuH20C2S3(NO)8,0.665
CuH20C6(NCl2)2,0.7467000000000001
CuH20N6OF2,0.74
CuH20S2(NO7)2,0.5273
CuH20S2(NO7)2,0.4314
CuH20Se2(NO7)2,0.3343
CuH22C8N10O,3.3843
CuH24C9S3IN6,2.6997
CuH28C10(N3Cl2)2,0.735
CuH2CBrN2,2.0763
CuH2CN2Cl,2.2745999999999995
CuH2CS2N,1.7084000000000001
CuH2PbSO6,0.24670000000000014
CuH2SO5,0.007200000000000095
CuH2SeO5,0.0
CuH3(NO2)3,0.5868
CuH32W6(Cl6O11)2,1.0639
CuH36C8(N5O4)2,0.9715
CuH36S8I2(N3O4)3,2.6872
CuH36S8N11O18,1.6715
CuH3C2NO4,0.2782
CuH3C3O4,0.46929999999999994
CuH3NCl,2.1259
CuH4(ClO)2,0.4739
CuH4(IO4)2,0.3091999999999997
CuH4(OF)2,0.3971
CuH4(OF)2,0.2657
CuH4C10(N2F7)2,1.1184
CuH4C2S2N2Cl,0.5842
CuH4C3ClO2,2.5729
CuH4Pb2(ClO2)2,0.1759999999999997
CuH4SeO5,0.0
CuH5C3NO4,0.25970000000000004
CuH5IO7,0.09930000000000017
CuH5N2Cl3,0.45189999999999997
CuH5Pb4SO11,0.31530000000000014
CuH6(CN2)4,1.1396
CuH6(CO2)4,0.5218
CuH6(CO2)4,0.0
CuH6(NCl)2,0.050999999999999934
CuH6(SeO4)2,0.0
CuH6BrN2,2.1545
CuH6C2O7,0.12689999999999999
CuH6C2SeCl,2.6288
CuH6C2SeI,2.4680999999999997
CuH6CI3N,0.06040000000000001
CuH6CN2O3,0.0
CuH6Pb4(SO7)2,1.1482999999999999
CuH6SO7,0.7432000000000001
CuH6SO7,0.3167000000000001
CuH6Se2NClO6,0.12269999999999992
CuH7C3NO6,0.6506000000000001
CuH8(BrO2)2,0.5915
CuH8(ClO5)2,0.6224000000000001
CuH8C2(N6Cl)2,0.6377999999999999
CuH8C2Br3NO,0.1273
CuH8C2NCl3,0.0
CuH8C2S2N4Cl,2.7072
CuH8C4(NO3)2,0.0
CuH8C4O5,0.15599999999999997
CuH8N2(OF2)2,0.5771000000000001
CuH8S3O10,0.8415
CuH9C3N(ClO)2,0.5570999999999999
CuH9C4(NO2)3,0.5551
CuH9C4S4N,0.006300000000000083
CuHCO4,0.3407
CuHClO,0.0
CuHIO4,0.0
CuHO2,0.0
CuHOF,0.0
CuHg(SeO3)2,0.7590999999999999
CuHg3As2Br3,0.2734000000000001
CuHg3As2Cl3,0.1895
CuHgO2,0.0
CuHgSBr,0.4491999999999998
CuHgSBr,0.5100000000000002
CuHgSBr,0.5367999999999999
CuHgSCl,0.5699999999999998
CuHgSCl,0.29629999999999956
CuHgSI,0.4529000000000001
CuHgSeBr,0.46560000000000024
CuHgSeCl,0.6294999999999997
CuI,1.3599
CuI,1.5721999999999996
CuI,1.1762999999999995
CuI,1.1643
CuI,1.2119999999999997
CuI,1.6315
CuI,1.4615
CuI,1.6210000000000004
CuI2,0.0
CuI4,0.0
CuIO4,0.9536
CuMo2O7,0.0
CuMo3Br7,1.6912
CuMo3Cl7,1.9195000000000002
CuMo3I7,1.5653000000000001
CuMoF6,0.0
CuMoO4,0.16359999999999997
CuMoO4,0.36949999999999994
CuMoO4,0.0
CuNi,0.0
CuNi2(PO4)2,0.0
CuNi2Sb,0.0
CuNi2Sn,0.0
CuNi3,0.0
CuNi3(SnS4)2,0.0
CuNi3N,0.0
CuNi3O4,0.0
CuNi3S8,0.0
CuNi4O5,0.0
CuNi9O10,0.0
CuNiAu,0.0
CuNiH16(CN)8,1.0759
CuNiO2,0.0
CuNiO2,0.11069999999999958
CuNiPd,0.0
CuNiSb2,0.0
CuNiSbS3,0.33199999999999985
CuO,0.0
CuO,0.013100000000000112
CuO,0.022299999999999986
CuO2,0.0
CuO2F,0.3263
CuO2F,0.0
CuP(HO)5,0.5852999999999999
CuP(HO)5,0.05479999999999996
CuP10,0.8487
CuP2,0.8679000000000006
CuP2(H2O3)2,0.2624
CuP2(HO)4,1.085
CuP2(HO)4,0.0
CuP2(HO)4,0.6392
CuP2H12N2(O4F)2,0.05820000000000003
CuP2H18C6Cl,2.9917
CuP2H7C2NO6,0.1852999999999998
CuP2PbO7,0.31309999999999993
CuP3H16C3NO12,0.000700000000000145
CuP4(RuO7)2,0.0
CuP4I,0.5692999999999993
CuP4O11,0.5740000000000001
CuP4S3Br,1.9334999999999996
CuP4S3Br,1.7399999999999998
CuP4S3I,1.7032000000000003
CuP4Se3Cl,1.6399
CuP4Se3I,1.1734
CuP4Se4I,1.6632
CuP6Pd11O34,0.009299999999999642
CuP7I,1.1402
CuPH4O5F,0.0
CuPH6NO5,0.0
CuPH6NO5,0.9088
CuPHO4,0.7223999999999999
CuPN2,1.8222999999999985
CuPNO5,0.35500000000000004
CuPO3,0.8381999999999996
CuPO3,1.2096
CuPO3,1.4985
CuPO4,0.007899999999999796
CuPO4,0.0
CuPO4,0.12580000000000002
CuPO4F,0.0
CuPPb2SO9,0.6518000000000002
CuPS3,1.1555
CuPSe2,0.0
CuPb2(ClO)2,0.0
CuPb2(OF)2,0.0
CuPb3(ClO2)2,0.0
CuPb4(SO7)2,0.0
CuPb5Se4(ClO3)4,0.6854
CuPbF6,0.2011
CuPbO2,0.0
CuPbSO6,0.0
CuPd,0.0
CuPd3,0.0
CuPdF6,0.0
CuPdO2,0.0
CuPt,0.0
CuPt7,0.0
CuPtF6,0.0814
CuPtO2,0.0
CuRe2(H2O3)4,1.3068
CuReO4,1.1371000000000002
CuReO4,1.4952999999999999
CuReO4,1.451
CuReO4,0.0
CuReO4,0.6712000000000002
CuReO4,0.6119999999999999
CuRh,0.0
CuRh2Pb,0.0
CuRhO2,0.6553000000000004
CuS,0.0
CuS2,0.0
CuS2(NO4)2,0.0
CuSCl,0.0
CuSO4,0.0
CuSO5,0.0
CuSb(MoO4)2,0.30540000000000056
CuSb(PO4)2,0.0
CuSb2(XeF4)6,2.1730000000000005
CuSb2(XeF5)4,0.6888000000000001
CuSb2(XeF8)2,0.06940000000000035
CuSb2BrO3,0.7827999999999999
CuSb2ClO3,0.6155999999999997
CuSb2H12(O3F4)2,3.8933
CuSb3(PO4)6,0.0
CuSb3XeF23,0.5704000000000002
CuSb6(SO8)2,0.42300000000000004
CuSbPbS3,0.7698
CuSbRh2,0.0
CuSbS2,0.7226999999999997
CuSbSe2,0.4985999999999997
CuSe,0.0
CuSe2,0.0
CuSe2Br,0.8486
CuSe2Cl,0.5841000000000001
CuSe2O5,0.0
CuSe3Br,1.0298999999999998
CuSe3I,1.0589
CuSeO3,0.0
CuSeO3,0.2102000000000004
CuSeO3,0.021500000000000075
CuSeO4,0.0
CuSeS,0.0
CuSi(HO2)2,0.22189999999999976
CuSi2N3,1.7323999999999984
CuSi2P3,0.0
CuSi7N10,0.2718999999999996
CuSiH12(OF)6,0.0
CuSiH18C7S3I,3.0379
CuSiH8(O2F3)2,0.6404
CuSiO3,0.1120000000000001
CuSiO3,0.0
CuSiRh2,0.0
CuSn,0.0
CuSn(PO4)2,0.19890000000000008
CuSn3H27C9NCl,2.8063000000000002
CuSnAu,0.0
CuSnF6,0.0
CuSnF6,0.09949999999999998
CuSnH12(NO3)2,0.6204000000000001
CuSnPd2,0.0
CuSnRh2,0.0
CuTe,0.0
CuTe(PO4)2,0.0
CuTe2,0.0
CuTe2Br,0.7460999999999998
CuTe2Cl,0.5968999999999998
CuTe2I,0.5709999999999997
CuTe2O5,0.13030000000000008
CuTe2PbO7,0.16530000000000022
CuTe4H12C4N,0.4093
CuTeAs,0.0
CuTeBr,0.7599
CuTeO3,0.0
CuTeO3,0.0019000000000000128
CuTeO4,0.0
CuTeO4,0.033800000000000274
CuTeO4,0.3853
CuTePb3CO10,0.05049999999999999
CuTeSBr,1.2396000000000003
CuTeSCl,1.2200000000000002
CuTeSe,0.0
CuTeSeBr,1.0534999999999997
CuTeSeCl,1.0564
CuTeSeI,1.0381000000000005
CuW3Br7,2.0637999999999996
CuW3Br7,2.1981
CuW3Cl7,2.3749000000000002
CuWO3F2,0.0
CuWO4,0.33870000000000006
CuWO4,0.0
CuWO4,0.6442
Dy,0.0
Dy(Al2Cr)4,0.0
Dy(Al2Cu)4,0.0
Dy(Al2Fe)4,0.0
Dy(Al5Fe)2,0.0
Dy(Al5Re)2,0.0
Dy(AlC)3,0.0
Dy(AlCl4)3,4.2606
Dy(AlCr)6,0.0
Dy(AlCu)6,0.0
Dy(AlFe)6,0.0
Dy(AlGe)2,0.0
Dy(AlSi)2,0.0
Dy(BC)2,0.0
Dy(BIr)2,0.0
Dy(BO2)3,5.493399999999999
Dy(BRh)4,0.0
Dy(BRu)4,0.0
Dy(Bi3O5)4,0.0
Dy(BiO2)3,2.0037
Dy(BrO2)3,0.9749999999999999
Dy(ClO4)3,4.9878
Dy(ClO4)3,5.4769
Dy(Co2B)6,0.0
Dy(Co5Mo)2,0.0
Dy(CoB)2,0.0
Dy(CoB)4,0.0
Dy(CoGe)2,0.0
Dy(CoGe)6,0.0
Dy(CoSi)2,0.0
Dy(CrFe5)2,0.0
Dy(CrGe)2,0.0
Dy(CrGe)6,0.0
Dy(CrS2)3,0.0
Dy(CrSi)2,0.0
Dy(CuGe)2,0.0
Dy(CuO2)2,0.0
Dy(CuS)3,1.3966000000000003
Dy(CuSe)3,1.2397
Dy(CuSi)2,0.0
Dy(CuTe)3,0.7643000000000004
Dy(Fe2Ge)2,0.0
Dy(Fe2Si)2,0.0
Dy(Fe5Mo)2,0.0
Dy(Fe5Re)2,0.0
Dy(Fe5Si)2,0.0
Dy(FeB)2,0.0
Dy(FeGe)2,0.0
Dy(FeGe)6,0.0
Dy(FeO2)2,0.0
Dy(FeSi)2,0.0
Dy(FeSn)6,0.0
Dy(GaCo)6,0.0
Dy(GaFe)6,0.0
Dy(GePd)2,0.0
Dy(GePt)2,0.0
Dy(GeRh)2,0.0
Dy(GeRu)2,0.0
Dy(HO)3,3.7109000000000005
Dy(IO3)3,3.5241
Dy(IO3)3,3.2820000000000005
Dy(InCu)6,0.0
Dy(InPt)4,0.0
Dy(Mg4Al3)4,0.0
Dy(MnAl)6,0.0
Dy(MnAl2)4,0.0
Dy(MnGe)2,0.0
Dy(MnGe)6,0.0
Dy(MnSi)2,0.0
Dy(MnSn)6,0.0
Dy(Mo3S4)2,0.0
Dy(Mo3Se4)2,0.0
Dy(NO3)3,3.4144
Dy(Ni2As)2,0.0
Dy(Ni2B)6,0.0
Dy(Ni2P)2,0.0
Dy(NiB)2,0.0
Dy(NiBi)2,0.0
Dy(NiGe)2,0.0
Dy(NiP)2,0.0
Dy(NiSb)2,0.0
Dy(PO3)3,5.6177
Dy(PO3)3,5.5999
Dy(PO3)3,5.7383999999999995
Dy(PPd)2,0.0
Dy(PPt4)2,0.0
Dy(PRu)2,0.0
Dy(SN)3,1.6134
Dy(SiAg)2,0.0
Dy(SiAu)2,0.0
Dy(SiIr)2,0.0
Dy(SiNi)2,0.0
Dy(SiNi5)2,0.0
Dy(SiOs)2,0.0
Dy(SiPd)2,0.0
Dy(SiPt)2,0.0
Dy(SiRh)2,0.0
Dy(SiRu)2,0.0
Dy(TiGa2)2,0.0
Dy(VCo5)2,0.0
Dy(VFe5)2,0.0
Dy(Zn10Rh)2,0.0
Dy(Zn10Ru)2,0.0
Dy(ZnP)3,0.28029999999999955
Dy10Al4Ge11,0.0
Dy10Si17,0.0
Dy10Ti6O27,2.597
Dy10Ti6O27,1.8638
Dy11(In3Si2)2,0.019600000000000506
Dy11(Mn2C3)6,0.0
Dy11(Ni10C)6,0.0
Dy11Cd45,0.0
Dy11Ge10,0.0
Dy11In9Ni4,0.0
Dy11S16,0.0
Dy11Sn10,0.0
Dy11Y5O24,3.9631999999999996
Dy12(MnC3)5,0.0
Dy12(OsC3)5,0.0
Dy12(ReC3)5,0.0
Dy12Al7Si,0.0
Dy12C6I17,0.03270000000000017
Dy12Co5Bi,0.0
Dy12Co5Sn,0.0
Dy12Co7,0.0
Dy12Ge5S28,0.9731000000000001
Dy12Ni6Pb,0.0
Dy12Si5S28,1.6467
Dy13Mg7Co4,0.0
Dy13Zn58,0.06879999999999997
Dy14(PbS8)3,2.1098
Dy14Ag51,0.0
Dy14Au51,0.0
Dy14Ti10O41,2.1137
Dy15(Fe4C13)2,0.0
Dy18Mn(FeBi3)2,0.0
Dy2(Al3Ir)3,0.0
Dy2(Al3Pd)3,0.0
Dy2(Al3Rh)3,0.0
Dy2(B2Rh3)3,0.0
Dy2(BiO2)7,0.0
Dy2(Ga3Co)3,0.0
Dy2(Ga3Ir)3,0.0
Dy2(Ga3Rh)3,0.0
Dy2(Ga3Ru)3,0.0
Dy2(GaNi)5,0.0
Dy2(GePt3)3,0.0
Dy2(InSn)3,0.0
Dy2(MoO4)3,3.5810999999999997
Dy2(MoO4)3,3.2159000000000004
Dy2(MoO4)3,3.5777
Dy2(Ni2B)5,0.0
Dy2(Ni5B3)3,0.0
Dy2(NiB2)3,0.0
Dy2(SO4)3,5.8184
Dy2(SeO4)3,3.0307000000000004
Dy2(SeO4)3,3.7761
Dy2(TeO3)3,3.2255
Dy2(WO4)3,3.9072
Dy20In40Rh19,0.0
Dy29Y3O48,3.9596999999999998
Dy2AgAu,0.0
Dy2AgIr,0.0
Dy2AgOs,0.0
Dy2AgRu,0.0
Dy2Al,0.0
Dy2Al17,0.0
Dy2Al2Fe15,0.0
Dy2Al3Co,0.0
Dy2Al3Cu,0.0
Dy2Al3Fe,0.0
Dy2Al3Fe14,0.0
Dy2Al3Ge4,0.0
Dy2Al3Si2,0.0
Dy2Al5Fe12,0.0
Dy2Al6Si4Au,0.0
Dy2Al6Si4Pt,0.0
Dy2AlCo2,0.0
Dy2AlCo3,0.0
Dy2AlGe2,0.0
Dy2AlGe3,0.0
Dy2AlNi2,0.0
Dy2AlZn,0.0
Dy2As7Rh12,0.0
Dy2Au,0.0
Dy2Au5F21,1.5532
Dy2B3O8,0.11709999999999976
Dy2B4C,0.0
Dy2B4O9,5.6245
Dy2B6Os,0.0
Dy2B6Ru,0.0
Dy2Be2GeO7,4.4691
Dy2Be2SiO7,5.089600000000001
Dy2Bi2O7,0.0
Dy2BiO2,0.0
Dy2C,0.0
Dy2C(NO)2,3.9833
Dy2C3,0.0
Dy2CI3,0.5520999999999998
Dy2CO5,4.4556
Dy2CO5,4.4368
Dy2CdCu2,0.0
Dy2CdGe2,0.0
Dy2CdIn,0.0
Dy2CdPd2,0.0
Dy2CdS4,1.0877
Dy2CdSe4,0.5809
Dy2CdTe4,0.0
Dy2Co12P7,0.0
Dy2Co17,0.0
Dy2Co2I,0.0
Dy2Co3Ge5,0.0
Dy2Co3Si5,0.0
Dy2Co7,0.0
Dy2Co7B3,0.0
Dy2CoGe2,0.0
Dy2CoGe6,0.0
Dy2CoPtO6,1.7675999999999998
Dy2CoSi2,0.0
Dy2CoTe2(SO7)2,3.0606
Dy2Cr2C3,0.0
Dy2CrFeO6,2.2241999999999997
Dy2CrGe4,0.0
Dy2CrSbO7,1.8942999999999994
Dy2Cu(BO2)8,0.8659000000000003
Dy2Cu(GeO3)4,0.7202999999999999
Dy2Cu(GeO4)2,0.6800999999999999
Dy2Cu(SO6)2,0.30579999999999996
Dy2Cu(SiO3)4,1.1438000000000001
Dy2Cu(WO4)4,0.0
Dy2Cu2O5,0.07209999999999983
Dy2Cu2O5,0.0
Dy2CuAg3,0.0
Dy2CuGe6,0.0
Dy2CuIr,0.0
Dy2CuO4,0.0
Dy2CuOs,0.0
Dy2CuPt,0.0
Dy2CuRh,0.0
Dy2CuRu,0.0
Dy2CuTe2(SO7)2,0.8786999999999998
Dy2CuTe5Br2O13,0.0
Dy2Fe12P7,0.0
Dy2Fe14B,0.0
Dy2Fe14C,0.0
Dy2Fe15Co2C,0.0
Dy2Fe15Co2CN,0.0
Dy2Fe15Si2C,0.0
Dy2Fe15Si2CN,0.0
Dy2Fe17,0.0
Dy2Fe17C,0.0
Dy2Fe17C3,0.0
Dy2Fe17CN,0.0
Dy2Fe17H3,0.0
Dy2Fe17N3,0.0
Dy2Fe2Si2C,0.0
Dy2Fe3Ni,0.0
Dy2Fe3Si5,0.0
Dy2Fe6Co8B,0.0
Dy2FeC4,0.0
Dy2FeCo3,0.0
Dy2FeGe4,0.0
Dy2FeMoO7,0.0
Dy2FeSbO7,1.7960000000000003
Dy2FeSi2,0.0
Dy2FeSi4,0.0
Dy2Ga3(Fe7C)2,0.0
Dy2Ga3Co,0.0
Dy2Ga3Cu,0.0
Dy2Ga3Fe14,0.0
Dy2Ga3Ni,0.0
Dy2Ga5Cu12,0.0
Dy2Ga8Co,0.0
Dy2Ga8Fe,0.0
Dy2GaAg,0.0
Dy2GaCo2,0.0
Dy2GaCu3,0.0
Dy2GaNi2,0.0
Dy2Ge2O7,3.8173999999999997
Dy2Ge2O7,2.9711
Dy2Ge2O7,3.8575
Dy2Ge2O7,3.7422
Dy2Ge2O7,3.3259
Dy2Ge2O7,3.5622999999999996
Dy2Ge2O7,3.5812999999999997
Dy2Ge2Ru,0.0
Dy2Ge5Ir3,0.0
Dy2Ge5Rh3,0.0
Dy2Ge5Ru3,0.0
Dy2Ge6Pd,0.0
Dy2Ge6Pt,0.0
Dy2GeO5,4.0049
Dy2H16S3O20,5.291799999999999
Dy2H4(SO4)3,5.2172
Dy2Hf2(MoO4)7,3.0368
Dy2Hf2O7,3.2281
Dy2HfS5,1.1946000000000003
Dy2In,0.0
Dy2In16Pt7,0.0
Dy2In3Cu,0.0
Dy2In8Co,0.0
Dy2InAg,0.0
Dy2InAu2,0.0
Dy2InGe2,0.0
Dy2InHg,0.0
Dy2InNi2,0.0
Dy2InPd2,0.0
Dy2IrAu,0.0
Dy2IrPd,0.0
Dy2IrRh,0.0
Dy2IrRu,0.0
Dy2Mg,0.0
Dy2MgAl,0.0
Dy2MgCd,0.0
Dy2MgCr2O8,1.5468000000000002
Dy2MgCu2,0.0
Dy2MgGa,0.0
Dy2MgGe2,0.0
Dy2MgIn,0.0
Dy2MgMo2(ClO4)2,1.7502
Dy2MgMo2(ClO4)2,1.7595999999999998
Dy2MgNb2O8,0.7464999999999997
Dy2MgNb2O8,0.4931000000000001
Dy2MgNi2,0.0
Dy2MgPd2,0.0
Dy2MgS4,2.3293
Dy2MgS4,2.5008000000000004
Dy2MgS4,1.9813999999999998
Dy2MgS4,2.6184000000000003
Dy2MgS4,1.3124000000000002
Dy2MgS4,1.9295000000000002
Dy2MgSe4,1.9212999999999996
Dy2MgSe4,2.0625
Dy2MgSe4,1.5888
Dy2MgSe4,2.2112999999999996
Dy2MgSe4,1.1109
Dy2MgSe4,1.2873999999999999
Dy2MgSi2,0.0
Dy2MgTiO6,3.2053
Dy2MgTl,0.0
Dy2MgV2O7,1.4659999999999997
Dy2MgV2O8,1.67
Dy2MgV2O8,1.6629
Dy2MgW2(ClO4)2,2.4472000000000005
Dy2Mn(GeO3)4,2.0967000000000002
Dy2Mn12P7,0.0
Dy2Mn17C3,0.0
Dy2Mn2O7,0.9041000000000001
Dy2Mn3Cu9P7,0.0
Dy2Mn3Sb3O14,1.1330999999999998
Dy2Mn3Si5,0.0
Dy2Mn9(CrGe4)3,0.0
Dy2MnCoO6,0.3917999999999999
Dy2MnGe4,0.0
Dy2MnNiO6,0.5364999999999998
Dy2MnSbO7,0.3758999999999997
Dy2Mo2C3,0.0
Dy2Mo2O7,0.0
Dy2Mo3H2Se2O17,1.6412
Dy2Mo4O15,3.3156999999999996
Dy2MoO6,1.8775999999999997
Dy2Nb2Fe15,0.0
Dy2Nb2O7,0.0
Dy2Nb2S7O30,0.1207
Dy2Nb3Ge4,0.0
Dy2NbGaO7,1.8804999999999996
Dy2Ni12As7,0.0
Dy2Ni12P7,0.0
Dy2Ni17,0.0
Dy2Ni22C3,0.0
Dy2Ni2Sn,0.0
Dy2Ni7,0.0
Dy2Ni7Sn3,0.0
Dy2NiAs2,0.0
Dy2NiB10,0.0
Dy2NiIr,0.0
Dy2NiRu,0.0
Dy2NiRuO6,0.0
Dy2NiSb4,0.0
Dy2NiSn6,0.0
Dy2O3,4.1997
Dy2O3,3.9254999999999995
Dy2O3,3.9974999999999996
Dy2OsC2,0.0
Dy2OsPd,0.0
Dy2P4O13,5.638800000000001
Dy2P4O13,5.2257
Dy2P4O13,5.5082
Dy2P4O13,5.4453000000000005
Dy2P7Rh12,0.0
Dy2Pb2O7,0.9474
Dy2PbS4,2.0230999999999995
Dy2Pd2Pb,0.0
Dy2PdPt,0.0
Dy2PdRh,0.0
Dy2PdRu,0.0
Dy2Pt,0.0
Dy2Pt2O7,1.5345
Dy2Re2Si2C,0.0
Dy2Re3Si5,0.0
Dy2ReB6,0.0
Dy2ReC2,0.0
Dy2Ru2O7,0.0
Dy2RuRh,0.0
Dy2S2O,2.1700999999999997
Dy2S2O,2.5624
Dy2S3,0.5937999999999999
Dy2S3,1.9090999999999996
Dy2S3,0.7389000000000001
Dy2SO2,3.0076000000000005
Dy2SO2,2.8611
Dy2Sb2O7,0.0
Dy2Sb2O7,1.3651
Dy2Sb2O7,1.8432000000000004
Dy2Sb5,0.0
Dy2SbO2,0.0
Dy2Sc3Si4,0.0
Dy2ScNbO7,2.2697
Dy2Se3,0.3663000000000003
Dy2SeO2,2.0807999999999995
Dy2SeO2,2.1479
Dy2SeOF2,2.8706
Dy2Si2O7,4.5344
Dy2Si2O7,4.6278
Dy2Si3,0.0
Dy2Si3Ni,0.0
Dy2Si3Pd,0.0
Dy2Si3Rh,0.0
Dy2Si4Mo3,0.0
Dy2Si5Ni3,0.0
Dy2Si5Rh3,0.0
Dy2Si9B36C,1.1721999999999992
Dy2SiO5,4.7218
Dy2SiO5,4.5384
Dy2SiO5,4.163
Dy2SiPd2,0.0
Dy2SiSeO4,2.5743
Dy2Sn2O7,2.7123
Dy2Sn3(PbS4)3,0.5906000000000002
Dy2Sn5,0.0
Dy2Sn5Rh3,0.0
Dy2SnAu2,0.0
Dy2SnS5,0.17159999999999975
Dy2Tc2O7,0.0
Dy2Te,0.006800000000000139
Dy2Te3,0.5488
Dy2Te4O11,3.2417
Dy2Te4O11,3.056
Dy2Te5,0.0
Dy2Te5O13,2.9867
Dy2TeO2,1.0886000000000005
Dy2TeO6,2.5307
Dy2TeO6,3.0065999999999997
Dy2TeO6,3.0392
Dy2TeS2,1.8358000000000003
Dy2Ti12(CuO4)9,0.08720000000000017
Dy2Ti2O7,2.7262999999999997
Dy2Ti2O7,2.5258000000000003
Dy2Ti2O7,1.8367
Dy2Ti2O7,2.7746999999999997
Dy2Ti3Si4,0.0
Dy2TiCuO6,0.0
Dy2TiO5,2.5157000000000003
Dy2TiO5,2.8711999999999995
Dy2TiO5,2.7184
Dy2TiO5,2.7613000000000003
Dy2TiO5,3.0481
Dy2TiO5,3.2941000000000003
Dy2TiO5,3.1654999999999998
Dy2Tl,0.0
Dy2TlAg,0.0
Dy2TlCd,0.0
Dy2TlHg,0.0
Dy2TlIn,0.0
Dy2TlZn,0.0
Dy2V2O7,0.0
Dy2V2O7,0.1947000000000001
Dy2VFeO6,1.3296000000000001
Dy2VO5,1.7473999999999998
Dy2W2O9,3.1433999999999997
Dy2WO6,2.9947
Dy2WO6,3.4083
Dy2WO6,3.7745
Dy2WO6,2.9143999999999997
Dy2YTaO7,3.3865000000000003
Dy2Zn17,0.0
Dy2ZnAg,0.0
Dy2ZnCuSi2,0.0
Dy2ZnGa,0.0
Dy2ZnHg,0.0
Dy2ZnIn,0.0
Dy2ZnIr,0.0
Dy2ZnOs,0.0
Dy2ZnPt,0.0
Dy2ZnRh,0.0
Dy2ZnRu,0.0
Dy2ZnS4,2.375
Dy2ZnTe2(SO7)2,3.9594000000000005
Dy2Zr2O7,2.7425999999999995
Dy2Zr2O7,2.6097000000000006
Dy2Zr2O7,4.0207
Dy2Zr2O7,4.0703000000000005
Dy2Zr8O19,2.1734999999999998
Dy2ZrS5,1.1966
Dy3(AgSn)4,0.0
Dy3(Al2Fe)2,0.0
Dy3(Al3Os)4,0.0
Dy3(Al3Ru)4,0.0
Dy3(AlNi3)2,0.0
Dy3(Co2Sn)4,0.0
Dy3(CoGe2)2,0.0
Dy3(CuGe)4,0.0
Dy3(CuSi)4,0.0
Dy3(CuSn)4,0.0
Dy3(Ga2Cu)2,0.0
Dy3(GaNi3)2,0.0
Dy3(Ge3Pt2)2,0.0
Dy3(GeRh)2,0.0
Dy3(In2Co)2,0.0
Dy3(P3Pd10)2,0.0
Dy3(SbPd2)4,0.0
Dy3(Si3Pd10)2,0.0
Dy3(Si3Ru)4,0.0
Dy3(SiNi3)2,0.0
Dy3Al,0.0
Dy3Al2,0.0
Dy3Al2(Ni2H3)3,0.0
Dy3Al5O12,4.5685
Dy3AlC,0.0
Dy3AlCoS7,0.0
Dy3AlFeS7,0.20779999999999976
Dy3AlN,0.0
Dy3AlNi8,0.0
Dy3AlNiS7,0.0
Dy3B7Mo,0.0
Dy3B7W,0.0
Dy3BWO9,3.7885999999999997
Dy3BeCrS7,0.0
Dy3Bi,0.0
Dy3Bi(Ru2O7)2,0.0
Dy3C4,0.0
Dy3Co,0.0
Dy3Co11B4,0.0
Dy3Co29(Si2B5)2,0.0
Dy3Co2Si3,0.0
Dy3Co4Ge13,0.0
Dy3Co6Sn5,0.0
Dy3CrS6,0.0
Dy3Cu11Si4,0.0
Dy3Cu20Sb11,0.0
Dy3Cu3Sb4,0.2964000000000002
Dy3CuGeS7,1.8098
Dy3CuGeSe7,1.1277
Dy3CuSe6,0.7262
Dy3CuSiS7,1.8005999999999993
Dy3CuSiSe7,1.5196000000000005
Dy3CuSnS7,1.4909999999999997
Dy3CuSnSe7,0.9926000000000004
Dy3Er,0.0
Dy3Fe2Si3,0.0
Dy3Fe2Si7,0.0
Dy3Fe5O12,1.6504000000000003
Dy3FeB7,0.0
Dy3Ga,0.0
Dy3Ga15Ru4,0.0
Dy3Ga2,0.005699999999999594
Dy3Ga5,0.0
Dy3Ga5O12,3.3047
Dy3Ga8Ag3,0.0
Dy3Ga8Ir3,0.0
Dy3Ga8Rh3,0.0
Dy3Ga9Pd2,0.0
Dy3Ga9Pt2,0.0
Dy3GaCoS7,0.0
Dy3GaCoSe7,0.0
Dy3GaFeS7,0.4429999999999996
Dy3GaFeSe7,0.0
Dy3GaNiS7,0.0
Dy3GaNiSe7,0.3080000000000003
Dy3GaO6,3.5913
Dy3GaS6,2.0614999999999997
Dy3Ge13Ir4,0.0
Dy3Ge13Os4,0.0
Dy3Ge13Rh4,0.0
Dy3Ge13Ru4,0.0
Dy3Ge3Ru2,0.0
Dy3Ge4,0.0
Dy3Ge5,0.0
Dy3GeO8,0.0
Dy3Hg,0.0
Dy3Ho,0.0
Dy3In,0.0
Dy3In5,0.0
Dy3InC,0.0
Dy3InN,0.0
Dy3InS6,1.0439000000000007
Dy3Ir,0.0
Dy3Ir2,0.0
Dy3Lu,0.0
Dy3Mg,0.0
Dy3Mg2CrS8,1.0737999999999999
Dy3Mg2MnS8,0.0
Dy3Mg2MoS8,0.4982000000000002
Dy3Mg2TiS8,0.0
Dy3Mg2VS8,0.0
Dy3Mg2WS8,0.05350000000000055
Dy3Mn3Ga2Si,0.0
Dy3MnAlS7,0.0
Dy3MnB7,0.0
Dy3NbO7,2.816
Dy3Ni11Ge4,0.0
Dy3Ni13B2,0.0
Dy3Ni19B10,0.0
Dy3Ni2,0.0
Dy3Ni7B2,0.0
Dy3NiGe2,0.0
Dy3NiPd2,0.0
Dy3Os,0.0
Dy3PbC,0.0
Dy3Pd2,0.0
Dy3Pd4,0.0
Dy3Pt,0.0
Dy3Pt4,0.0
Dy3ReB7,0.0
Dy3ReO7,0.0
Dy3Rh,0.0
Dy3Rh2,0.0
Dy3Ru,0.0
Dy3Ru2,0.0
Dy3S2Cl5,3.2556000000000003
Dy3S3N,1.3945000000000003
Dy3S4,0.0
Dy3SOF5,3.6130999999999998
Dy3Sb4Au3,0.5673000000000004
Dy3Sb5O12,2.9411
Dy3SbO3,0.37760000000000016
Dy3SbO7,2.7960000000000003
Dy3Sc2Al3O12,4.7071000000000005
Dy3Sc2S7,0.0
Dy3Se3N,1.1709999999999998
Dy3Se4,0.0
Dy3Se4O12F,3.7410999999999994
Dy3Si11Pt23,0.0
Dy3Si2Cl5O6,4.7463999999999995
Dy3Si2Ni,0.0
Dy3Si3O10F,5.277799999999999
Dy3Si4,0.0
Dy3SnC,0.0
Dy3TaO7,3.5153
Dy3TaO7,3.0763000000000003
Dy3TaO7,3.4082999999999997
Dy3Te3N,1.1197999999999997
Dy3Tl5,0.0
Dy3Tm,0.0
Dy3VH3O8,2.3987000000000003
Dy3Y,0.0
Dy3Y5O12,4.0051000000000005
Dy3Zn11,0.0
Dy3Zr,0.0
Dy4(Al8Pd3)3,0.0
Dy4(Al8Pt3)3,0.0
Dy4(B2O5)3,5.3260999999999985
Dy4(CoB2)3,0.0
Dy4(FeB2)3,0.0
Dy4(SiS4)3,2.2456000000000005
Dy4Al2O9,4.005599999999999
Dy4Al3Fe5,0.0
Dy4B4O11F2,5.4755
Dy4BClO7,4.7368999999999994
Dy4Bi2S9,1.0944000000000003
Dy4C5,0.0
Dy4CdCo,0.0
Dy4CdIr,0.0
Dy4CdNi,0.036799999999999944
Dy4CdPd,0.0
Dy4CdPt,0.025799999999999823
Dy4CdRh,0.0
Dy4CdS7,1.1853000000000002
Dy4CdSe7,0.8468
Dy4Co3,0.0
Dy4CoB13,0.0
Dy4CoSn8,0.0
Dy4CrGa12,0.0
Dy4CrGe8,0.0
Dy4CrS7,0.0
Dy4CrSe7,0.0
Dy4Cu5P7,0.0
Dy4Cu7Sn11,0.0
Dy4Fe28BC,0.0
Dy4Fe29Si5,0.0
Dy4FeS7,0.2145999999999999
Dy4FeSe7,0.16850000000000032
Dy4FeSn8,0.0
Dy4Ga12Fe,0.0
Dy4Ga12Ni,0.0
Dy4Ga12Pd,0.0
Dy4Ga12Pt,0.0
Dy4Ga16Co3,0.0
Dy4Ga21Ni10,0.0
Dy4GaSbS9,2.0612
Dy4Ge6Ir7,0.0
Dy4Ge6Rh7,0.0
Dy4In(NiGe2)2,0.0
Dy4In20Ni11,0.0
Dy4In5S13,0.0