formula,band_gap
Li15V6(P8O29)2,1.0735
Li15W7N19,1.5830000000000002
Li15Zr7(Cu3O14)2,0.0
Li16(CoO4)3,0.0
Li16Fe4SiO16,1.8915999999999997
Li16Mn15(CuO12)3,0.36260000000000003
Li16Mn15Fe(PO4)16,3.4633000000000003
Li16Nb2N8O,3.3829000000000002
Li16Ta2N8O,3.4017
Li16V3Ga13O32,1.5151
Li17(AgSn2)3,0.0
Li17(Co4O9)2,0.666
Li17(CoO4)3,0.3449000000000002
Li17(CoO4)3,0.0
Li17(CoO4)4,0.7742
Li17(MnAs2)4,0.0
Li17(WO3)19,0.2740999999999998
Li17Ag12F29,1.4135
Li17Cl5O6,2.6597999999999997
Li17Cr2O12,0.4558
Li17Cr6(Si2O7)6,0.4342999999999999
Li17Fe4(CO3)16,0.0
Li17Fe6(Si2O7)6,0.0
Li17La12Zr8O48,0.009399999999999853
Li17Nb18O54,0.0
Li17Nb20O60,0.0
Li17Ni11O28,0.0
Li17Ni11O28,0.7214
Li17Pb4,0.0
Li17Sn4,0.0
Li17Ti20O40,0.0
Li17V16O32,0.8935000000000004
Li18Fe5N12,0.0
Li19(CoO4)4,0.0
Li19(FeAs)20,0.0
Li19(Mn3As4)3,0.0
Li19Cr4P8O35F,1.9694000000000003
Li19Cu4(HO2)8,0.0
Li19La12Zr8O48,0.011499999999999844
Li19Mn4P8O35F,0.48009999999999975
Li19Mn5N9,0.0
Li19Mn8C16(SO16)4,0.1016999999999999
Li19Ni23O42,0.0
Li19V12O32,0.6928999999999998
Li19V8(BO3)16,0.5949000000000002
Li2(BH)11,3.8952999999999998
Li2(BH)7,4.5411
Li2(CoO2)3,0.0515000000000001
Li2(CoO2)3,0.6186000000000003
Li2(CoO2)3,0.0
Li2(CoO2)3,1.1551999999999998
Li2(FeO2)3,0.0
Li2(FeO2)5,0.0
Li2(LuGe)3,0.0
Li2(NiO2)3,0.0
Li2(NiO2)5,0.0
Li2(TaS2)3,0.0
Li2(TmGe)3,0.0
Li2(VS2)3,0.0
Li20(CoO2)21,0.0
Li20B54O,0.0
Li20Co21O40,0.0
Li20Co21O40,0.5469999999999997
Li20Nb19O60,0.0
Li20Si3P3S23Cl,2.3935999999999997
Li20Si3P3S23Cl,2.3724
Li20Si3P3S23Cl,2.3076
Li21(Co4O9)2,0.6675
Li21(CoO4)4,0.0
Li21(FeO4)4,1.0675
Li21Mo11O32,0.008500000000000618
Li21Si5,0.0
Li22(Cu3Si2)7,0.05140000000000011
Li22Ge5,0.0
Li22Pb5,0.0
Li22Si5,0.0
Li22Sn5,0.0
Li23(MnAs)20,0.0
Li23Ni17O40,0.0
Li24(I2N)5,0.6148
Li24Mn11CrO36,1.2313
Li24Mn11CrO36,1.5105
Li24Mn11CrO36,1.2310999999999999
Li24Mn11CrO36,1.24
Li24Mn11CrO36,1.5100000000000002
Li24Mn5Cr7O36,1.0677000000000003
Li24Mn5Cr7O36,1.0341
Li24Mn5Cr7O36,1.0373
Li24Mn5Cr7O36,1.0553000000000001
Li24Mn5Cr7O36,1.0389
Li24Mn5Cr7O36,0.7504
Li24Mn5Cr7O36,1.0371000000000001
Li24Mn5Cr7O36,1.0885
Li24Mn5Cr7O36,0.883
Li24Mn5Cr7O36,1.0202
Li24Mn7Cr5O36,1.1001999999999998
Li24Mn7Cr5O36,1.1079
Li24Mn7Cr5O36,1.2372999999999998
Li24Mn7Cr5O36,1.1144999999999998
Li24Mn7Cr5O36,1.119
Li24Mn7Cr5O36,1.127
Li24Mn7Cr5O36,1.0812
Li24Mn7Cr5O36,1.0745
Li24Mn7Cr5O36,1.037
Li24Mn7Cr5O36,0.7546000000000004
Li24MnCr11O36,1.004
Li24MnCr11O36,0.4993000000000003
Li24MnCr11O36,0.0
Li24MnCr11O36,0.7498
Li24MnCr11O36,0.9977
Li24Ti11CrO36,1.4958999999999998
Li24Ti11CrO36,1.4654999999999998
Li24Ti11CrO36,1.4433999999999998
Li24Ti11CrO36,1.5560999999999998
Li24Ti11CrO36,1.0897999999999999
Li24Ti5Cr7O36,1.2071999999999998
Li24Ti5Cr7O36,0.9017999999999997
Li24Ti5Cr7O36,1.2211000000000003
Li24Ti5Cr7O36,1.1905999999999999
Li24Ti5Cr7O36,0.9025000000000003
Li24Ti5Cr7O36,1.2212
Li24Ti5Cr7O36,1.1976
Li24Ti5Cr7O36,1.2258999999999998
Li24Ti5Cr7O36,0.0
Li24Ti5Cr7O36,1.1757999999999997
Li24Ti7Cr5O36,1.2749000000000001
Li24Ti7Cr5O36,1.3016
Li24Ti7Cr5O36,1.2939000000000003
Li24Ti7Cr5O36,1.2200000000000002
Li24Ti7Cr5O36,1.2496
Li24Ti7Cr5O36,1.3141000000000003
Li24Ti7Cr5O36,1.3152999999999997
Li24Ti7Cr5O36,1.2928000000000002
Li24Ti7Cr5O36,0.8952999999999998
Li24TiCr11O36,0.9709000000000003
Li24TiCr11O36,0.0
Li24TiCr11O36,0.6848000000000001
Li24TiCr11O36,0.6793
Li25Ca5La7Nb8O48,3.3864
Li26(B24O)3,0.0
Li27As10,0.0
Li27Sb10,0.0
Li28Mg22N25,0.0
Li2AcAl,0.0
Li2AcIn,0.0
Li2AcPb,0.0
Li2AcSn,0.0
Li2AcTl,0.0
Li2Ag3F6,0.0
Li2AgAu,0.0
Li2AgBi,0.0
Li2AgF3,1.9647999999999999
Li2AgF3,1.3372
Li2AgF3,2.0522
Li2AgF3,1.8653
Li2AgF3,1.9705
Li2AgF3,2.127
Li2AgF3,1.9409
Li2AgF4,0.5616999999999999
Li2AgF4,0.0
Li2AgF4,0.3751000000000001
Li2AgF4,0.5475999999999999
Li2AgF5,0.6790000000000003
Li2AgF5,0.1600999999999999
Li2AgF5,5.2718
Li2AgF5,0.4086000000000001
Li2AgF5,0.22120000000000006
Li2AgF6,0.0
Li2AgGe,0.0
Li2AgHg,0.0
Li2AgPb,0.0
Li2AgPd,0.0
Li2AgSb,0.14780000000000015
Li2MnP2O7,4.2365
Li2MnP2O7,4.1701
Li2MnP2O7,4.2766
Li2MnP2O7,2.3365
Li2MnP2O7,2.3245
Li2MnP2O7,3.7511
Li2MnP2O7,2.5407
Li2MnP2O7,3.7512999999999996
Li2MnP2O7,3.7889
Li2MnP2O7,4.0492
Li2MnP2O7,3.7721
Li2MnP2O7,0.0
Li2MnP2O7,3.9831
Li2MnP3O10,1.3778
Li2MnP3O10,0.0
Li2MnP4(H4O5)4,4.1836
Li2MnP4H3O14,0.0
Li2MnPCO7,1.9910999999999999
Li2MnPCO7,1.8388
Li2MnPCO7,0.8778999999999999
Li2MnPCO7,0.40369999999999995
Li2MnPCO7,0.6842999999999999
Li2MnPCO7,0.0
Li2MnPHO5,3.1918999999999995
Li2MnPHO5,3.2607000000000004
Li2MnPHO5,2.8968
Li2MnPO4F,3.7342999999999997
Li2MnPO4F,3.3516
Li2MnPO4F,3.3419999999999996
Li2MnPO4F,3.5992999999999995
Li2MnPO4F,3.0801
Li2MnPO5,1.0031000000000003
Li2MnPO5,0.4836999999999998
Li2MnSO4F3,1.4832
Li2MnSi3O8,2.3135000000000003
Li2MnSi3O8,3.2608
Li2MnSi3O8,2.5157999999999996
Li2MnSi4O11,0.06369999999999987
Li2MnSi4O11,0.9705999999999999
Li2MnSiCO7,0.9821
Li2MnSiO4,3.0521000000000003
Li2MnSiO4,2.7378
Li2MnSiO4,2.9620999999999995
Li2MnSiO4,3.0557000000000003
Li2MnSiO4,2.8232
Li2MnSiO4,2.8799
Li2MnSiO4,2.8823999999999996
Li2MnSiO4,2.9646999999999997
Li2MnSiO4,2.6138
Li2MnSiO4,2.7851000000000004
Li2MnSiO4,2.5844000000000005
Li2MnSiO4,2.8158000000000003
Li2MnSiO4,2.8520999999999996
Li2MnSiO4,3.0436000000000005
Li2MnSiO5,0.5558000000000001
Li2MnSn(PO4)2,3.0925
Li2MnSn3O8,1.1584999999999992
Li2MnSnO4,0.0
Li2MnSnO4,1.1925
Li2MnSnS4,0.07069999999999999
Li2MnSnS4,1.1046999999999998
Li2MnV(P2O7)2,0.5374999999999999
Li2MnV(P2O7)2,0.4958
Li2MnV(P2O7)2,0.36339999999999995
Li2MnV(P2O7)2,0.0
Li2MnV(P2O7)2,0.1770999999999998
Li2MnV(P2O7)2,0.47119999999999984
Li2MnV(P2O7)2,0.601
Li2MnV(P2O7)2,0.42820000000000014
Li2MnV(P2O7)2,0.6505000000000001
Li2MnV(P2O7)2,0.2411000000000001
Li2MnV(P2O7)2,0.24150000000000005
Li2MnV(P2O7)2,0.010100000000000442
Li2MnV(PO4)2,2.5021
Li2MnV(PO4)3,1.3347
Li2MnV(PO4)3,0.9035
Li2MnV(PO4)3,1.3256999999999999
Li2MnV(PO4)3,0.9885000000000002
Li2MnV(PO4)3,1.1412
Li2MnV(PO4)3,1.0027999999999997
Li2MnV(PO4)3,1.0845
Li2MnV(PO4)3,0.9026000000000001
Li2MnV(PO4)3,1.1589999999999998
Li2MnV(PO4)3,1.1712
Li2MnV(PO4)3,0.891
Li2MnV(PO4)3,1.1678
Li2MnV2(PO4)3,0.0
Li2MnV2O6,0.4998
Li2MnV3O8,1.5143
Li2MnV3O8,0.0
Li2MnV3O8,0.9020000000000001
Li2MnV3O8,1.6437
Li2MnV3O8,1.6982999999999997
Li2MnV3O8,0.7338999999999998
Li2MnV3O8,0.5388000000000002
Li2MnV3O8,0.5538999999999996
Li2MnV3O8,0.5376999999999996
Li2MnV3O8,1.7233
Li2MnV3O8,0.9803000000000002
Li2MnV3O8,1.2288999999999999
Li2MnV3O8,0.7536
Li2MnV4CoO12,1.4335999999999998
Li2MnV4CuO12,0.0
Li2MnV4FeO12,1.0531000000000001
Li2MnV4NiO12,0.8984000000000001
Li2MnV5O12,0.0
Li2MnVO4,0.49470000000000036
Li2MnVO4,0.0
Li2MnVO4,0.49929999999999986
Li2MnVP2(HO5)2,0.9159999999999999
Li2MnVP2(HO5)2,0.5952000000000002
Li2MnVP2(HO5)2,0.5618000000000003
Li2MnVP2(HO5)2,1.0425
Li2MnVP2(HO5)2,0.24469999999999992
Li2MnVP2(HO5)2,0.24409999999999998
Li2MnVP2(HO5)2,0.0
Li2MnVP2(HO5)2,0.2936000000000001
Li2MnVP2(HO5)2,0.7447999999999997
Li2MnVP2(HO5)2,0.24449999999999994
Li2MnVP2(HO5)2,0.46629999999999994
Li2MnVP2(HO5)2,0.5207999999999999
Li2MnVP2(HO5)2,0.24289999999999967
Li2MnVP2(HO5)2,0.5762
Li2MnVP2(O4F)2,0.8944999999999999
Li2MnVP2(O4F)2,0.3408000000000002
Li2MnVP2(O4F)2,0.6966999999999999
Li2MnVP2(O4F)2,0.7482
Li2MnVP2(O4F)2,0.24529999999999985
Li2MnVP2(O4F)2,0.2445999999999997
Li2MnVP2(O4F)2,0.49340000000000006
Li2MnVP2(O4F)2,0.0
Li2MnVP2(O4F)2,0.3185000000000002
Li2MnVP2(O4F)2,0.07469999999999999
Li2MnVP2(O4F)2,0.0947
Li2MnVP2(O4F)2,0.3107
Li2MnVP2(O4F)2,0.0766
Li2MnWO6,0.7695999999999998
Li2Mo(PO3)5,4.4309
Li2Mo(PO3)8,0.045499999999999985
Li2Mo(PO4)2,1.7283
Li2Mo(PO4)2,1.5154
Li2Mo(PO4)2,1.6269
Li2Mo(PO4)2,1.5303
Li2Mo(PO4)2,1.9317
Li2Mo(PO4)2,1.6945999999999999
Li2Mo15Se19,0.0
Li2Mo3S4,1.4366000000000003
Li2Mo4O13,2.3953
Li2Mo4O13,2.447
Li2MoF6,2.0388
Li2MoO3,1.4571
Li2MoO3,1.6018
Li2MoO3,1.3636
Li2MoO3,0.5515999999999996
Li2MoO4,4.4005
Li2MoO4,3.8713
Li2MoP4O13,1.8745999999999998
Li2MoP4O13,0.0
Li2Nb(PO3)5,0.0647000000000002
Li2Nb(PO4)2,0.09200000000000008
Li2Nb(PO4)2,0.3167
Li2Nb(PO4)2,1.1534000000000004
Li2Nb(PO4)2,0.0
Li2Nb2(PO4)3,0.0
Li2Nb2Fe3O10,1.5600999999999998
Li2Nb2W2O13,0.38110000000000005
Li2Nb4O11,2.3244
Li2Nb4O11,2.3476
Li2Nb4ZnO12,2.8733
Li2Nb4ZnO12,3.0476
Li2Nb6NiO18,0.8795
Li2Nb6NiO18,1.2693000000000003
Li2NbCo3O8,0.6956999999999998
Li2NbCo3O8,0.45920000000000005
Li2NbCo3O8,0.4546000000000001
Li2NbCr3O8,1.6013000000000002
Li2NbCr3O8,1.5998999999999999
Li2NbCr3O8,2.0370000000000004
Li2NbF6,0.07390000000000008
Li2NbF6,0.0
Li2NbFe3O8,1.3881
Li2NbFe3O8,1.8009
Li2NbFe3O8,0.8408999999999998
Li2NbNi3O8,0.0
Li2NbO3,0.0
Li2NbOF5,3.7382999999999997
Li2NbOF5,3.6859
Li2NbP4O13,0.40549999999999997
Li2NbS3,0.22740000000000027
Li2NbS3,0.0
Li2NbV(PO5)2,2.1366
Li2NbV3O8,0.8755000000000002
Li2NbV3O8,1.21
Li2NbV3O8,0.13599999999999968
Li2NbV3O8,1.1001999999999996
Li2NbVO4,0.0
Li2Nd(NO3)5,3.6948
Li2Nd2Ge3,0.0
Li2Nd2Si3,0.0
Li2NdAl,0.0
Li2NdAs2,0.0
Li2NdGa,0.1349999999999998
Li2NdGe,0.0
Li2NdIn,0.0
Li2NdPCO7,4.193
Li2NdPb,0.0
Li2NdSb2,0.0
Li2NdTl,0.0
Li2Ni(CO3)2,2.9454
Li2Ni(CO3)2,1.7797999999999998
Li2Ni(CO3)2,3.1111
Li2Ni(CO3)2,3.5794
Li2Ni(PO3)4,4.3565000000000005
Li2Ni(PO3)4,4.5469
Li2Ni(PO3)4,4.5107
Li2Ni(PO3)4,2.9649999999999994
Li2Ni(PO3)4,4.0882000000000005
Li2Ni(PO3)4,2.6838000000000006
Li2Ni(PO3)4,4.6402
Li2Ni(PO3)4,4.0470999999999995
Li2Ni(PO3)5,1.0713
Li2Ni(PO3)5,0.0
Li2Ni(PO3)5,0.1663
Li2Ni(PO4)2,0.0
Li2Ni(PS3)2,0.5457999999999998
Li2Ni(SO4)2,4.045400000000001
Li2Ni(WO4)2,3.0801
Li2Ni12P7,0.0
Li2Ni2(MoO4)3,2.9642999999999997
Li2Ni2(SO4)3,3.6558
Li2Ni2(SO4)3,3.0096
Li2Ni2(SO4)3,3.8594000000000004
Li2Ni2BiO6,0.8308999999999997
Li2Ni2BiO6,0.0
Li2Ni2H24C6(N4O5)3,4.2989
Li2Ni2S3,0.0
Li2Ni2SbO6,0.669
Li2Ni2SbO6,0.0
Li2Ni2SnO6,0.0
Li2Ni2SnO6,0.3115999999999999
Li2Ni3(BO3)3,0.0
Li2Ni3(P2O7)2,3.6043999999999996
Li2Ni3(P2O7)2,3.7280999999999995
Li2Ni3(P2O7)2,3.3375000000000004
Li2Ni3(P2O7)2,3.7211
Li2Ni3BiO8,0.7894999999999999
Li2Ni3BiO8,0.0
Li2Ni3O3F2,2.2039999999999997
Li2Ni3OF6,3.2175
Li2Ni3P9O28,0.0
Li2Ni3SbO8,0.6613000000000002
Li2Ni3SbO8,0.20809999999999995
Li2Ni3SbO8,0.5522
Li2Ni3SbO8,0.0
Li2Ni3SbO8,0.47460000000000013
Li2Ni3SnO8,0.04139999999999988
Li2Ni3SnO8,0.48360000000000003
Li2Ni3SnO8,0.044299999999999784
Li2Ni3SnO8,0.5425
Li2Ni3SnO8,0.0
Li2Ni3SnO8,0.5037000000000003
Li2Ni3TeO8,0.20779999999999976
Li2Ni3TeO8,0.0
Li2Ni3WO8,0.2610999999999999
Li2Ni3WO8,0.5903999999999998
Li2Ni3WO8,0.0
Li2Ni4OF8,2.9514999999999993
Li2Ni4P4O15,3.3233000000000006
Li2Ni5(PO4)4,0.0
Li2Ni5O7,0.0
Li2Ni5O9,0.0
Li2NiBO4,0.9341999999999999
Li2NiBO4,0.6168
Li2NiBO4,0.9314
Li2NiBiO4,0.0
Li2NiCSO7,3.2596
Li2NiF4,4.6955
Li2NiGe3O8,3.0431
Li2NiGeO4,2.9925
Li2NiH12(SO7)2,4.8361
Li2NiH8(CO5)2,4.1396999999999995
Li2NiN,0.0
Li2NiO2,0.6210999999999998
Li2NiO2,0.9116000000000004
Li2NiO2,1.938
Li2NiO2F,0.4748999999999999
Li2NiO2F,0.055299999999999905
Li2NiO2F,0.0
Li2NiO2F,0.7120000000000002
Li2NiO2F,0.05439999999999978
Li2NiO3,1.1037
Li2NiO3,0.9437000000000002
Li2NiOF2,1.6075999999999997
Li2NiP2O7,3.5606999999999998
Li2NiP2O7,3.8336000000000006
Li2NiP2O7,0.4053
Li2NiP2O7,4.13
Li2NiP2O7,2.3814
Li2NiP2O7,0.29499999999999993
Li2NiP2O7,3.8381
Li2NiP2O7,2.0738
Li2NiP2O7,4.1257
Li2NiP2O7,3.8393999999999995
Li2NiP2O7,3.4846000000000004
Li2NiP2O7,2.4722999999999997
Li2NiP2O7,4.6702
Li2NiP2O7,4.1252
Li2NiP2O7,4.312200000000001
Li2NiP3O10,0.0
Li2NiPCO7,0.0
Li2NiPO4F,4.1348
Li2NiPO4F,0.30089999999999995
Li2NiPO4F,3.6477
Li2NiSn(PO4)2,1.7729999999999997
Li2NiSn3(PO4)6,0.0
Li2NiSnO4,1.9165999999999999
Li2NiSnO4,1.8763000000000005
Li2NiSnO4,1.4935999999999998
Li2O,2.723
Li2O,2.461
Li2O,2.736
Li2O,2.7845
Li2O,4.8986
Li2O,5.2421999999999995
Li2O2,1.6379
Li2O2,1.9742999999999997
Li2OsO6,0.0
Li2P(H2O3)2,3.7626
Li2P(HO)6,5.6516
Li2P2H2O7,5.2791
Li2P2PdO7,1.0586
Li2P2WO8,2.7776000000000005
Li2P2WO8,2.3738
Li2P2WO8,3.2535
Li2P4WO13,2.9840999999999998
Li2P5WO15,3.931
Li2P5WO15,1.5090000000000003
Li2P7(H3N)9,2.0904999999999996
Li2P8W3O29,2.1807
Li2PH3O4,5.3952
Li2PNO2,5.3528
Li2PS3,0.0
Li2PWCO7,3.2806999999999995
Li2PWO6,2.6243
Li2PbAu,0.0
Li2PbO3,1.044
Li2Pd,0.0
Li2PdAu,0.0
Li2PdF6,1.6748999999999998
Li2PdO2,1.1973000000000003
Li2PdO3,0.0
Li2PdO3,1.0970000000000004
Li2PdPb,0.0
Li2PmAl,0.0
Li2PmGa,0.16349999999999998
Li2PmGe,0.0
Li2PmIn,0.0
Li2PmPb,0.0
Li2PmSi,0.0
Li2PmSn,0.0
Li2PmTl,0.0
Li2Pr(NO3)5,3.6557
Li2Pr2Ge3,0.0
Li2Pr2Si3,0.0
Li2Pr5Sn7,0.0
Li2PrAl,0.0
Li2PrAs2,0.0
Li2PrGa,0.06930000000000014
Li2PrGe,0.0
Li2PrIn,0.0
Li2PrO3,0.0
Li2PrP2,0.0
Li2PrPb,0.0
Li2PrSb2,0.0
Li2PrTl,0.0
Li2Pt,0.0
Li2PtF6,2.4532
Li2PtF6,2.3577
Li2PtO2,1.5326
Li2PtO3,1.734
Li2RhF6,0.0
Li2RhN2,0.0
Li2RhO3,0.0
Li2RuF6,0.0398
Li2RuO3,0.0
Li2S,3.8953999999999995
Li2S,3.3862000000000005
Li2S,1.8753999999999997
Li2S,3.125
Li2S,1.9206999999999999
Li2S2O7,5.5360000000000005
Li2SO4,6.1674
Li2SO4,5.9904
Li2SO4,5.55
Li2Sb,0.0
Li2Sb(PO3)5,3.7536999999999994
Li2SbAsCO7,3.1606999999999994
Li2SbAu,0.0
Li2SbP(OF3)2,3.7559
Li2SbP3O10,3.5521000000000003
Li2SbPCO7,4.0421000000000005
Li2SbPCO7,3.2196000000000002
Li2SbPd,0.0
Li2SbPt,0.0
Li2SbS2,1.4659
Li2SbSO4F3,4.3691
Li2Sc(PO4)2,0.2571
Li2ScFe(SiO3)4,2.9333000000000005
Li2ScIn,0.07179999999999964
Li2ScP2HO8,4.7658000000000005
Li2ScPCO7,4.0839
Li2Se,2.9746
Li2Se2O7,2.9444999999999997
Li2SeO4,3.5781
Li2SeO4,3.8324
Li2Si,0.0
Li2Si12(NiO6)5,4.3937
Li2Si2Ni2O7,3.2481999999999998
Li2Si2Ni2O7,3.0167
Li2Si2Ni3O8,2.7613
Li2Si2NiO6,3.4257999999999997
Li2Si2NiO6,3.7949
Li2Si2NiO6,3.2861999999999996
Li2Si2NiO6,3.9212999999999996
Li2Si2NiO6,3.2396000000000003
Li2Si2NiO6,3.4086
Li2Si2NiO6,3.2432999999999996
Li2Si2NiO6,2.9578999999999995
Li2Si2NiO6,3.7604999999999995
Li2Si2O5,5.24
Li2Si2O5,5.154
Li2Si2WO7,2.7995000000000005
Li2Si3H30(C5N2)2,3.0675
Li2Si3Ni2O9,3.7565
Li2Si3Ni2O9,3.2407999999999997
Li2Si3Ni3O10,3.7241000000000004
Li2Si3NiO8,3.5043999999999995
Li2Si3NiO8,4.144300000000001
Li2Si3NiO8,3.4899000000000004
Li2Si3O7,5.2253
Li2Si4(NiO4)3,0.0
Li2Si4Ni2O11,0.0
Li2Si4Ni4O13,3.0562999999999994
Li2Si4Ni5O14,2.5810999999999997
Li2Si4Ni5O14,2.9500999999999995
Li2Si4NiO10,4.2622
Li2Si4NiO10,3.7573
Li2Si4NiO10,3.7519
Li2Si4NiO10,3.4654
Li2Si5Ni2O13,3.2519
Li2Si5Ni5O16,2.4104
Li2Si6Ni2O15,3.8219000000000003
Li2Si6Ni3O16,3.4109999999999996
Li2SiAu,0.0
Li2SiBSbO7,2.5145
Li2SiF6,8.0844
Li2SiH18(C3N2)2,2.7831
Li2SiN2,3.8508
Li2SiNiO4,3.3961000000000006
Li2SiNiO4,3.5774999999999997
Li2SiNiO4,3.7673000000000005
Li2SiNiO4,3.8209
Li2SiNiO4,3.3765
Li2SiNiO4,3.0107
Li2SiNiO4,3.0164999999999997
Li2SiNiO4,3.3533000000000004
Li2SiNiO4,2.9899000000000004
Li2SiNiO4,2.9951
Li2SiNiO4,2.9164000000000003
Li2SiNiO4,2.9985
Li2SiNiO4,3.1113999999999997
Li2SiNiO4,3.0102
Li2SiNiO4,3.2952
Li2SiNiO4,3.3467000000000002
Li2SiO3,5.0766
Li2SiS3,3.1776999999999997
Li2SiSnCO7,3.0435999999999996
Li2SiSnS4,1.9189000000000003
Li2Sm(NO3)5,3.6957000000000004
Li2Sm2Ge3,0.0
Li2Sm2Si3,0.0
Li2Sm5Sn7,0.0
Li2SmAl,0.11039999999999983
Li2SmIn,0.0
Li2SmPCO7,4.6246
Li2SmTl,0.0
Li2Sn(BO3)2,2.1593
Li2Sn(BO3)2,3.2075000000000005
Li2Sn(BO3)2,2.385
Li2Sn(BO3)2,3.0463999999999998
Li2Sn(H5O4)2,4.465
Li2Sn(H5O4)2,4.1652000000000005
Li2Sn(HO)6,3.8055
Li2Sn(PO3)4,3.8013
Li2Sn(PO3)4,3.9056
Li2Sn(PO3)4,4.0236
Li2Sn(PO3)4,3.5839999999999996
Li2Sn(PO3)5,0.11250000000000027
Li2Sn(PO3)6,1.8913
Li2Sn(SO4)2,3.7469
Li2Sn2(SO4)3,3.9623
Li2Sn2(SO4)3,3.6139
Li2Sn2Au,0.0
Li2Sn3(P2O7)2,2.7556
Li2Sn3(P2O7)2,3.0831000000000004
Li2Sn3(P2O7)2,2.5153000000000003
Li2Sn4P4O15,2.8943999999999996
Li2Sn5,0.0
Li2Sn5(PO4)4,2.1230999999999995
Li2SnAu,0.0
Li2SnBO4,1.0700000000000003
Li2SnBPO7,2.7306999999999997
Li2SnCSO7,3.7891000000000004
Li2SnF6,5.0089
Li2SnGe,0.0
Li2SnH14Se3O7,1.9732
Li2SnHg,0.0
Li2SnIr,0.0
Li2SnN2,1.6966999999999999
Li2SnO3,3.1283000000000003
Li2SnO4,2.2752999999999997
Li2SnP2O7,4.008100000000001
Li2SnP2O7,4.0479
Li2SnP2O7,3.5874
Li2SnP2O7,3.7003000000000004
Li2SnP2O7,2.958
Li2SnP2O7,3.7994
Li2SnP2O7,3.2918000000000003
Li2SnP2O7,3.2933
Li2SnP2O7,2.0935
Li2SnPb,0.0
Li2SnPd,0.0
Li2SnPt,0.0
Li2SnS3,1.4190999999999998
Li2SnSe3,1.4796999999999998
Li2SnTeO6,2.0439000000000003
Li2Ta2(OF2)3,3.8335999999999997
Li2Ta2W2O13,0.35819999999999996
Li2Ta3N5,0.0
Li2Ta4O11,3.4741000000000004
Li2TbF6,0.0
Li2TbF6,0.3232999999999999
Li2TcO3,0.4090000000000007
Li2Te,2.4914
Li2Te2O5,3.2521000000000004
Li2Te2O5,3.1057999999999995
Li2TeMoO6,3.0987
Li2TeO3,3.5802
Li2TeO3,3.9576
Li2TeO3,3.1190999999999995
Li2TeO4,2.2670999999999997
Li2TeS3,1.0825
Li2TeSe3,0.5098000000000003
Li2TeWO6,3.6400999999999994
Li2Th(AsO4)2,3.9494000000000002
Li2Th5OF22,6.3357
Li2ThN2,2.2243999999999993
Li2Ti(BO3)2,2.7927999999999997
Li2Ti(BO3)2,2.9039
Li2Ti(BO3)2,2.9516
Li2Ti(BO3)2,2.8806
Li2Ti(CoO3)2,0.6642999999999999
Li2Ti(FeO3)2,1.3694000000000002
Li2Ti(IO3)6,2.7776000000000005
Li2Ti(NiO3)2,0.3679000000000001
Li2Ti(PO3)5,0.0
Li2Ti(PO3)5,0.2597999999999998
Li2Ti(TeO4)3,1.5032999999999999
Li2Ti(TeO4)3,1.4608999999999996
Li2Ti13O22,0.0
Li2Ti2(PO4)3,0.039300000000000335
Li2Ti2AsPO10,3.1390000000000002
Li2Ti2CoO6,1.935
Li2Ti2Fe3O10,0.20250000000000012
Li2Ti2FeO6,1.5542000000000002
Li2Ti2Mn3O10,1.1323
Li2Ti2Mn3O10,1.1362
Li2Ti2Mn3O10,0.0
Li2Ti2Mn5O12,0.4996999999999998
Li2Ti2MnCr2(PO4)6,2.1315
Li2Ti2MnNiO8,1.0697
Li2Ti2NiO6,2.6289000000000002
Li2Ti2O5,3.4224
Li2Ti2O5,3.4351
Li2Ti2O5,3.7177
Li2Ti2S5,1.1806999999999999
Li2Ti2Sb2O,0.0
Li2Ti2V3O10,1.0718
Li2Ti2V3O10,1.1264999999999996
Li2Ti2V3O10,1.2224999999999997
Li2Ti2V3O10,1.2576999999999998
Li2Ti2V3O10,0.21960000000000024
Li2Ti2V5O12,0.8546999999999998
Li2Ti2VO6,0.8497999999999997
Li2Ti2VO6,0.2702
Li2Ti3(GaO4)3,0.0
Li2Ti3BiO8,0.0
Li2Ti3Co(PO4)6,0.0
Li2Ti3CoO8,0.0
Li2Ti3CoO8,1.9785000000000004
Li2Ti3CoO8,1.9659999999999997
Li2Ti3CoO8,0.9994999999999994
Li2Ti3CoO8,1.8695
Li2Ti3CoO8,2.1204
Li2Ti3CoO8,1.4884999999999997
Li2Ti3CrO8,0.0
Li2Ti3FeO8,0.00509999999999966
Li2Ti3FeO8,0.0
Li2Ti3FeO8,1.7926000000000002
Li2Ti3FeO8,1.5364
Li2Ti3MnO8,1.6670000000000003
Li2Ti3MnO8,0.6227
Li2Ti3MnO8,1.7513000000000005
Li2Ti3MnO8,2.0685999999999996
Li2Ti3MnO8,1.4421999999999997
Li2Ti3NbO8,0.0
Li2Ti3Ni(PO4)6,0.013399999999999967
Li2Ti3NiO8,1.4515999999999996
Li2Ti3NiO8,1.7674000000000003
Li2Ti3NiO8,2.3305
Li2Ti3NiO8,2.6379999999999995
Li2Ti3NiO8,2.049
Li2Ti3O6,0.0
Li2Ti3O7,2.9823000000000004
Li2Ti3O7,2.2641
Li2Ti3O7,2.8666
Li2Ti3P9O28,0.006699999999999928
Li2Ti3SbO8,0.0
Li2Ti3Sn(PO4)6,2.5061
Li2Ti3SnO8,0.0
Li2Ti3SnO8,1.2185999999999995
Li2Ti3V3O12,0.9737999999999998
Li2Ti3VO8,0.0
Li2Ti3VO8,0.2192999999999996
Li2Ti3VO8,0.21060000000000034
Li2Ti3ZnO8,2.3708
Li2Ti3ZnO8,3.1267999999999994
Li2Ti4Co(AsO5)4,2.7286
Li2Ti4Co(PO5)4,2.3813999999999997
Li2Ti4Co(PO5)4,1.2763
Li2Ti4Ni(PO5)4,2.9379
Li2Ti4Ni(PO5)4,0.8691
Li2Ti4Ni(PO5)4,2.6287999999999996
Li2Ti4O9,2.8924
Li2Ti4VO8,0.0
Li2Ti6O13,2.8381
Li2Ti6PbO14,2.6323999999999996
Li2Ti6Zn3O16,2.7517
Li2Ti6Zn3O16,2.5401
Li2Ti7Nb6O30,2.2723
Li2Ti7Nb6O30,1.8989
Li2Ti7O15,1.2216
Li2TiCo2O5,1.3469999999999995
Li2TiCo2O5,1.3723
Li2TiCo2O5,1.3442000000000003
Li2TiCo2O5,0.8901999999999997
Li2TiCo2O5,0.4471999999999996
Li2TiCo3(PO4)6,0.0
Li2TiCo3O8,0.001100000000000101
Li2TiCo3O8,0.0
Li2TiCo3O8,0.02770000000000028
Li2TiCoO4,1.2516999999999996
Li2TiCoO4,1.0566
Li2TiCoO4,0.18149999999999977
Li2TiCr(PO4)3,2.3334
Li2TiCr(PO4)3,2.4212
Li2TiCr2O6,2.0191
Li2TiCr3O8,0.0
Li2TiCr3O8,0.7193999999999998
Li2TiCr3O8,0.7439
Li2TiCr3O8,0.8332999999999997
Li2TiCr3O8,0.9263000000000001
Li2TiCr3O8,1.118
Li2TiCr3O8,0.8110000000000002
Li2TiCr3O8,0.03410000000000002
Li2TiCrO4,0.0
Li2TiCrO4,0.3064
Li2TiCuO4,0.0
Li2TiF6,4.1597
Li2TiFe(PO4)3,2.3733000000000004
Li2TiFe(PO4)3,2.4993
Li2TiFe2O5,1.6700000000000004
Li2TiFe2O5,1.2397
Li2TiFe2O5,0.9697999999999993
Li2TiFe2O5,1.0745
Li2TiFe2O5,1.3449000000000004
Li2TiFe2O5,1.1954000000000002
Li2TiFe2O5,1.4740000000000002
Li2TiFe2O5,1.0834999999999995
Li2TiFe3O8,0.2077
Li2TiFe3O8,0.3517999999999999
Li2TiFe3O8,0.16569999999999996
Li2TiFe3O8,0.0
Li2TiFeO4,0.9611000000000005
Li2TiFeO4,0.8816000000000002
Li2TiFeO4,1.2211999999999996
Li2TiFeO4,1.3399
Li2TiFeO4,1.1097000000000001
Li2TiFeO4,1.2735999999999996
Li2TiFeO4,1.5224999999999995
Li2TiFeO4,1.6326
Li2TiFeO4,1.3979000000000004
Li2TiFeO4,1.7837
Li2TiFeO4,1.6268999999999996
Li2TiFeO4,1.1218000000000004
Li2TiFeO4,1.3479999999999999
Li2TiFeO4,0.0
Li2TiFeO4,0.5253999999999999