formula,band_gap
K2ZrGe2O7,3.9148000000000005
K2ZrHF7,6.349600000000001
K2ZrO3,3.6617
K2ZrS4,1.8944
K2ZrSi2O7,4.520300000000001
K2ZrSi2O7,4.4017
K2ZrSi3(HO5)2,4.9328
K2ZrSi3O10,0.8271999999999999
K2ZrSi3O10,0.7432
K2ZrTe3,0.3738999999999999
K3(Cu4S3)2,0.0
K3(Cu4Se3)2,0.0
K3(CuO2)2,0.0
K3(CuS)4,0.0
K3(Fe11O17)2,0.04039999999999999
K3(Fe11O17)2,0.0
K3(FeO2)2,0.0
K3(FeO2)4,0.0769
K3(FeS2)2,0.0
K3(FeSe)8,0.0
K3(FeSe2)2,0.0
K3(InAu)8,0.0
K3(Mg10In7)2,0.0
K3(MoO3)10,0.0
K3(MoO3)10,0.6203999999999998
K3(Na13In24)2,0.0
K3(NiO2)2,1.3828
K3(PbCl4)2,0.07729999999999992
K3(PdO2)2,0.0
K3(PtO2)2,0.0
K3(SO4)2,0.3421
K3(SeO4)2,0.0
K3(TcCl4)2,0.5112
K3(VS2)5,0.0
K30Ga9As19,0.18379999999999996
K30Ga9Sb19,0.3096000000000001
K34(Zn4In17)5,0.0
K38Nb7As24,0.0
K3Ag,0.0
K3Ag3As2,1.2533
K3Ag9(SbS3)4,1.6252999999999997
K3AgC4(SN)4,3.5704
K3AgO2,1.8095999999999999
K3AgSn3Se8,1.1216000000000002
K3Al(PO4)2,4.5245999999999995
K3Al2(AsO4)3,3.2748
K3Al2(PO4)3,4.4329
K3Al2As3,1.1862000000000004
K3Al2Si4O13,0.0
K3Al3OF12,0.0
K3Al4P2O8F9,5.456
K3Al5P8(H21O25)2,5.0504
K3AlAs2,0.4517
K3AlB8O15,4.9962
K3AlBr6,3.3167999999999997
K3AlCl6,4.6098
K3AlF6,6.2999
K3AlF6,6.431000000000001
K3AlH6,1.7988000000000002
K3AlH6,2.8773
K3AlH6,2.1919
K3AlI6,1.7713
K3AlO3,2.8977
K3AlP2,0.6989999999999998
K3AlSe3,2.4697
K3AlTe3,2.0332
K3As,0.11180000000000001
K3As(PSe3)3,1.5724
K3As11,1.4670999999999998
K3As7,1.3032000000000001
K3AsBr6,2.9616
K3AsCl6,3.4739
K3AsF12,0.2892999999999999
K3AsF6,4.3402
K3AsF6,4.227399999999999
K3AsF6,4.2458
K3AsI6,2.178
K3AsO4,3.3075
K3AsS3,2.5958
K3AsS4,2.0102
K3AsS4,2.0132
K3AsSe3,2.1092
K3AsSe4,1.1130999999999998
K3Au3Br8,0.8133999999999999
K3Au3I8,1.0602
K3AuBr6,0.0
K3AuCl6,0.1652
K3AuF12,0.7448999999999999
K3AuF6,0.7349999999999999
K3AuF6,1.0341
K3AuO,0.5612
K3AuSe13,0.7186000000000001
K3AuSe2,2.0524
K3B(SO4)3,5.2623
K3B12H12Br,4.7872
K3B12H12I,4.6690000000000005
K3B17,0.0
K3B5PH2O13,0.09010000000000001
K3B6BrO10,5.212000000000001
K3B6ClO10,5.3729
K3BAs2,1.3129
K3BN2,1.5852000000000002
K3BP2,1.6658
K3BP3(HO4)3,4.8533
K3BS3,2.5044000000000004
K3BSb4O13,1.8698000000000001
K3Ba,0.0
K3Ba2Pr2(BiO5)3,0.0
K3Ba3Li2Al4B6O20F,4.1017
K3Ba7Ti10(O9F)3,0.2909999999999999
K3BaPCO7,3.9055999999999997
K3Be2H7C3O13,4.6287
K3Be3B3P6O25,0.0020000000000000018
K3Be3B3P6O25,0.0
K3BeF5,6.2169
K3BePCO7,3.6357999999999997
K3Bi,0.02499999999999991
K3Bi,0.12860000000000005
K3Bi,0.036900000000000044
K3Bi(AsSe2)6,1.3986999999999998
K3Bi(PS4)2,2.0899
K3Bi2,0.0
K3Bi2(AsO4)3,3.3384
K3Bi2(NO3)9,3.6628
K3Bi2(PO4)3,3.7815999999999996
K3Bi2I9,2.5425
K3Bi3(PS4)4,2.3213
K3Bi5(AsO4)6,3.4208000000000003
K3Bi5(PO4)6,3.9595000000000002
K3Bi7(SO6)4,3.1702999999999997
K3BiBr6,3.4347
K3BiCl6,4.035
K3BiF6,4.5618
K3BiI6,2.6837
K3BiO3,2.9552
K3BiO4,1.1394
K3BiPCO7,0.4455
K3BiSe3,2.0592
K3BiTe3,1.4987
K3BrCl2,4.4948
K3BrO,0.8913
K3C6N9O,2.6745
K3CO3F,3.8463
K3Ca,0.0
K3Ca(PO4)2,0.019699999999999995
K3CaP2HO8,4.9617
K3CaPCO7,4.3648
K3CaV5O15,2.7283
K3Cd,0.0
K3Cd(BO2)5,3.8179999999999996
K3Cd16,0.0
K3Ce(AsO4)2,0.36849999999999916
K3Ce(PO4)2,0.2618999999999998
K3Ce(PS4)2,0.0030000000000001137
K3Ce2(NO3)9,3.0986000000000002
K3CeBr6,0.31479999999999997
K3CeCl6,0.35919999999999996
K3CeI6,0.2764000000000002
K3ClO,0.9897000000000001
K3ClO,1.0785
K3ClO,1.0264
K3Co(CN)6,4.1716
K3Co(CN)6,4.134399999999999
K3Co(CN)6,3.8399
K3Co(NO2)6,2.6886
K3Co2F7,0.0
K3CoF6,2.8983999999999996
K3CoO2,1.6284
K3CoPCO7,2.9166999999999996
K3CoPCO7,2.9857
K3CoPCO7,0.0
K3CoPCO7,2.5829
K3Cr(CN)6,1.7717999999999998
K3Cr(CN)6,1.9487
K3Cr(HO)6,3.2374
K3Cr11S18,0.22160000000000046
K3Cr11S18,0.27609999999999957
K3Cr2(AsO4)3,2.338
K3Cr2(PS4)3,0.9572
K3Cr4PO16,2.3655
K3CrF6,4.3858
K3CrF6,4.3353
K3CrO4,1.2424
K3CrPCO7,2.6393
K3Cu(CN)4,4.164899999999999
K3Cu(NO3)5,0.8737999999999999
K3Cu11Te16,0.06309999999999949
K3Cu2(BiS2)5,0.5758000000000001
K3Cu2F7,0.0
K3Cu2H7,0.0
K3Cu2P4HO14,0.0
K3Cu3As2,1.2741
K3Cu3P2,1.2892000000000001
K3Cu5O4,1.1966999999999999
K3CuB2P4H3O17,0.3045
K3CuO2,1.5215999999999998
K3CuP2S7,1.9684
K3CuPCO7,0.2125999999999999
K3Dy(AsS4)2,1.3716
K3DyCl6,4.6582
K3DyCl6,5.0577000000000005
K3DyF6,5.146100000000001
K3DyF6,5.9154
K3DyF6,6.6673
K3DySi2O7,3.7064
K3Er(SO4)3,5.3384
K3Er4(CuTe2)5,0.48599999999999977
K3Er7S12,1.8393
K3ErCl6,4.6701
K3ErCl6,5.196899999999999
K3ErF6,5.9116
K3ErF6,5.2085
K3ErF6,6.7433
K3ErH9(C3O7)2,0.30590000000000006
K3ErMgV2O8,1.7368
K3ErSi2O7,3.7372000000000005
K3ErSi3(HO5)2,4.4098
K3ErV2O8,3.4218
K3Eu,0.0
K3Eu(PO4)2,0.0
K3EuCl6,0.0
K3EuF6,0.0
K3EuSi3(HO5)2,0.0
K3EuV2O8,0.0
K3Fe(CN)6,0.19419999999999993
K3Fe(CN)6,0.0
K3Fe(CO2)6,2.4702
K3Fe2(PO4)3,2.1096999999999997
K3Fe3P4H2O17,2.2497
K3Fe5(PO4)6,1.833
K3Fe5F15,0.0
K3Fe6F19,0.0022999999999999687
K3FeF6,4.1409
K3FeMo4O15,2.4693
K3FeO2,0.9346999999999999
K3FeO3,0.0
K3FeO4,0.0
K3FePCO7,3.6583999999999994
K3FePCO7,3.743
K3FeS3,0.0
K3FeSe3,0.0
K3Ga13,0.0
K3Ga2(PO4)3,3.768
K3Ga3As4,0.8722000000000001
K3GaBr6,2.1845
K3GaCl6,3.4505999999999997
K3GaF6,5.7897
K3GaI6,0.8318000000000001
K3GaO3,2.6237
K3GaS3,2.8021
K3GaSe3,2.4441
K3GaTe2O11,0.4991000000000001
K3GaTe3,1.5112
K3Gd(AsS4)2,0.6147
K3Gd(BH4)6,2.7268
K3Gd(BO3)2,2.6966
K3Gd(PO4)2,1.2922
K3Gd3(PS4)4,1.4989999999999999
K3Gd5(PO4)6,2.7396000000000003
K3GdCl6,3.1837
K3GdCl6,2.8529999999999998
K3GdF6,4.6378
K3GdGe3(HO5)2,3.8274
K3GdH6(C2O5)3,2.9734000000000003
K3GdSi2O7,3.1454
K3Ge17,0.058699999999999974
K3Ge4Au,0.8175999999999999
K3GeH2NO3,3.1836
K3GeH3S3O2,2.9928
K3GePCO7,3.5576999999999996
K3GeS3,2.4164
K3GeSe3,1.8278999999999999
K3GeTe3,1.0607000000000002
K3H(SO4)2,5.408899999999999
K3H(SO4)2,5.4133000000000004
K3H(SeO4)2,3.3252
K3H(SeO4)2,3.5728
K3H2S2NO7,4.6422
K3H3Pd,1.7674
K3H3PtS2Br2O7,2.8523
K3H5Pd,2.7196
K3H5Pt,3.1237
K3H8RhC4(ClO6)2,2.1501
K3HPdS2(ClO3)2,2.0652
K3HPtS2(ClO3)2,3.0173
K3HRhC5N5O,3.8355999999999995
K3HS3O11,5.1696
K3HS3O5,3.7488
K3HWS4O,2.5955
K3Hf2Se11,0.0
K3Hf4Ag2F23,0.6645
K3Hg,0.0
K3Hg11,0.0
K3Hg3S2Br5O6,1.999
K3Hg3S2Cl5O6,2.3158
K3HgN5O11,2.4972
K3Ho(PO4)2,5.0659
K3Ho(SiO3)3,2.8236999999999997
K3Ho(SiO3)3,3.7625
K3HoCl6,4.6876999999999995
K3HoCl6,5.0202
K3HoF6,6.0044
K3HoF6,5.173
K3HoF6,6.7356
K3HoMgV2O8,1.7641000000000002
K3HoSi2O7,3.7219999999999995
K3HoSi3O10,0.0
K3HoV2O8,3.4261
K3I2Br,3.7310000000000003
K3IO,1.0284000000000002
K3IO5,1.2925
K3IO5,1.4979999999999998
K3In,0.0
K3In(IO3)6,3.2415000000000003
K3In(IO3)6,0.0
K3In(PO4)2,3.3889
K3In(PO4)2,3.398
K3In2As3,0.5968999999999998
K3In3(PO4)4,3.2321999999999997
K3InAu5,0.0
K3InBr6,2.4083
K3InC12(O2F3)6,4.6186
K3InCl6,3.6445999999999996
K3InCl6,3.4596
K3InF6,5.1959
K3InF6,5.21
K3InF6,5.584
K3InI6,1.2778
K3InP2,0.7887
K3IrCl6,1.9930000000000003
K3IrF6,2.5667999999999997
K3IrF6,2.3670999999999998
K3IrF6,2.3527
K3La(AsO4)2,3.8820999999999994
K3La(PO4)2,4.2235
K3La(PS4)2,2.4497999999999998
K3La(PSe4)2,1.4575
K3La2(NO3)9,3.466
K3LaCl6,4.5674
K3Li,0.0
K3Li2Nb5O15,1.6585999999999999
K3Li2Nb5O15,2.2722
K3Li2Nb6(PO8)3,0.0
K3Li2Ta6(PO8)3,0.0
K3Li3P6O19,0.0002999999999999947
K3Li3TeO6,2.6948
K3LiGe4,1.0603000000000002
K3LiIrO4,0.1944999999999999
K3LiMg4(Si2O5)6,4.7657
K3LiMn4(MoO4)6,2.576
K3LiNb6O15,0.0
K3LiP2O7,4.608300000000001
K3LiPb4,0.6082999999999998
K3LiSi4,1.5221999999999998
K3LiSiO4,4.173
K3LiTi7O16,2.8255999999999997
K3Lu(BO3)2,3.2916000000000003
K3Lu(PO4)2,5.0522
K3Lu(PO4)2,4.992900000000001
K3Lu(PO4)2,4.9407
K3Lu(SiO3)3,3.4819
K3LuCl6,4.6928
K3LuF6,6.0081
K3LuF6,6.722899999999999
K3LuSi2O7,3.6132
K3Mg,0.0
K3Mg18Pb11,0.0
K3Mg18Sn11,0.0
K3Mg2Cl7,4.5973
K3Mg4(Si2O7)2,0.0
K3MgCu2F9,0.0
K3MgPCO7,4.4383
K3MgSbS4,2.2993
K3MgSbS4,1.6743000000000001
K3MgSbS4,1.7434999999999998
K3Mn(CN)6,0.0
K3Mn2Cl7,1.1779
K3Mn2F7,1.0475
K3Mn2O8,0.12639999999999998
K3Mn2O8,0.0
K3Mn4O8,0.0
K3Mn4P5H3O20,0.8538000000000001
K3Mn5(Si2O5)6,0.0
K3MnCrO8,0.8097
K3MnF6,0.0
K3MnH5,1.5729
K3MnO3,1.3245000000000002
K3MnO4,0.0
K3MnPCO7,3.5748
K3Mo12PO40,2.2502
K3Mo2Br9,0.9673
K3Mo2BrO7,3.0890999999999997
K3Mo2Cl9,0.9318
K3Mo2O4F5,2.5171
K3Mo3C3(Se2N)2,0.09610000000000007
K3Mo3Se14,0.8907000000000003
K3Mo4H6O16F,3.3179
K3MoBr6,1.5527
K3MoCl6,1.6364
K3MoCl6,1.6431
K3MoF6,3.3529999999999998
K3MoHS4O,2.1188
K3MoI6,1.4013000000000002
K3NO3,0.21740000000000004
K3NO4,3.6559
K3Na,0.0
K3Na(B3O5)4,5.3008999999999995
K3Na(FeO4)2,1.0345
K3Na(MoO4)2,4.4704
K3Na(RuO4)2,0.4915999999999998
K3Na(RuO4)2,0.0
K3Na(SO4)2,5.2996
K3Na(SeO4)2,3.2916
K3Na(SeO4)2,3.5425
K3Na(WO4)2,4.6671
K3Na2InO4,1.9064999999999999
K3Na2LiTeO6,2.2125999999999997
K3Na2SnAs3,0.5786000000000002
K3Na2SnBi3,0.0026999999999999247
K3Na2SnP3,0.9637000000000002
K3Na3(NO4)2,4.0476
K3Na3Nb8(PO7)5,0.03840000000000021
K3Na3TeP6(HO4)6,3.1763
K3Na3TeP6(HO4)6,4.0183
K3Na4Si3BF22,6.9785
K3Na5V2(Mo3O10)2,0.0
K3Na5V2(MoO4)6,0.0
K3Na5V3(MoO4)5,0.05750000000000011
K3Na5V3Mo5O24,0.0
K3Na5VMo7O20,0.002500000000000391
K3Na5VMo7O24,0.0
K3Na7Mg2H12S6(NO18)2,3.4588
K3Na8FeH12S6(NO18)2,2.1774999999999998
K3Na9Sr4(BO2)20,4.4954
K3NaAl12Si12(HO6)8,4.8271
K3NaBe2F8,6.6922
K3NaCr2O8,3.0764
K3NaCr2O8,2.4922
K3NaCr2O8,2.7309
K3NaFeCl6,0.006000000000000005
K3NaFeCl6,0.25
K3NaFeCl6,0.0
K3NaH4,2.2279
K3NaHf2(SiO4)3,4.6751
K3NaMg(RuO4)2,0.5026000000000002
K3NaMg(RuO4)2,0.2851999999999999
K3NaMgCr2O8,1.5352000000000001
K3NaMgCr2O8,1.3387
K3NaMnCl6,2.4629000000000003
K3NaNp4H4(S2O13)2,0.45730000000000004
K3NaOs2O9,0.0
K3NaP2(O3F)2,4.5042
K3NaP2H8O11,4.5369
K3NaP4(H2O7)2,5.2931
K3NaP4(H2O7)2,4.540500000000001
K3NaRe2O9,1.8230999999999997
K3NaS2,1.9482
K3NaSi3(GeO6)2,2.4875
K3NaSi3(SnO6)2,2.707
K3NaSi6(SnO10)2,0.26
K3NaSn3Se8,1.4211000000000003
K3NaTh2O6,3.6675000000000004
K3NaTi2(SiO4)3,2.5908000000000007
K3NaU(CO4)3,0.45519999999999994
K3NaUC3O11,2.1423
K3NaZr2(SiO4)3,4.2645
K3Nb(SO4)4,2.9435000000000002
K3Nb2Ag3S8,2.0457
K3Nb2AsSe11,1.1647999999999998
K3Nb2Cu3S8,1.8542
K3Nb2Cu3Se8,1.6021
K3Nb2CuSe12,1.1322999999999999
K3Nb2S11,1.3803000000000003
K3Nb2Se11,0.8635999999999999
K3Nb3(BO6)2,1.9205999999999999
K3Nb3(BO6)2,2.3808000000000002
K3Nb3(BO6)2,2.3347
K3Nb3Ge2O13,2.3239
K3Nb3Si2O13,2.2255000000000003
K3Nb3Si2O13,2.1454
K3Nb4Mo4(PO4)12,0.1069
K3Nb6SBr17,0.5802
K3Nb6VO19,2.3407
K3Nb7O19,2.1043000000000003
K3Nb7O19,2.0722
K3Nb8(O5F2)2,0.0
K3Nb8O21,0.0
K3NbAs2O9,3.1394
K3NbF6,0.0
K3NbHOF7,4.1033
K3NbO8,2.3973
K3NbP2O9,2.8040000000000003
K3NbS4,2.3437
K3NbSe4,1.8249
K3Nd(AsS4)2,1.6896
K3Nd(BO3)2,3.3697000000000004
K3Nd(PO4)2,4.9309
K3Nd(PS4)2,2.4434
K3Nd(Si2O5)3,4.0363
K3Nd(Si2O5)3,4.1358
K3Nd2(NO3)9,3.4785000000000004
K3Nd3(PS4)4,2.4204
K3Nd3Br10,0.0
K3Nd3I10,0.10299999999999976
K3NdBr6,3.7704
K3NdCl6,4.5581
K3NdF6,5.614
K3NdH6(C2O5)3,3.4054
K3NdI6,3.1592000000000002
K3NdSi2O7,3.5564
K3NdSi7O17,4.713500000000001
K3NdV2O8,3.6565
K3Ni(NO2)5,1.9658
K3Ni2F7,3.5833000000000004
K3NiF6,0.0
K3NiO2,1.5998999999999999
K3NiO2,1.632
K3NiPCO7,3.7622000000000004
K3Np(H3O4)2,1.543
K3Np(H3O4)2,1.4329
K3Np(HO3)2,1.2553
K3Np(MoO5)2,0.35970000000000013
K3Np3Si2O13,0.0
K3NpO2F5,2.0921000000000003
K3NpO2F5,0.0
K3NpO8,0.10509999999999997
K3OsF6,0.313
K3P,0.2117
K3P(W3O10)4,3.238
K3P11,1.93
K3P2AuSe8,0.9631999999999998
K3P2H(O3F)2,4.9848
K3P2H7O10,4.8991
K3P3H4O11,5.3467
K3P4H5O14,5.4137
K3P5RuSe10,0.9415
K3P6N11,3.9959
K3P6S6N7,3.3416
K3PO3F2,4.6692
K3PO4,3.9991
K3PO5,0.0
K3PS4,2.7739000000000003
K3PSe16,0.8305000000000002
K3PSe4,1.6858
K3PbAu5,0.0
K3PdF6,0.0
K3Pr(PO4)2,4.8643
K3Pr2(NO3)9,3.4494000000000002
K3PrBr6,3.7651
K3PrCl6,4.566000000000001
K3PrCl6,4.95
K3PrF6,5.521100000000001
K3PrI6,3.174
K3Pt2(SO4)6,0.0
K3Pu(H3O4)2,1.1730999999999998
K3Pu(H3O4)2,0.7336000000000001
K3Pu(PS4)2,0.06440000000000001
K3Rb,0.0
K3Rb3Zn4Sn3Se13,1.4283000000000001
K3Rb5(Mo3O10)4,3.3587
K3Rb5Te4H24(SO10)4,3.4569
K3RbMn2F12,3.37
K3ReC4(N2O)2,2.3945
K3ReC4(N2O)2,2.3920000000000003
K3ReClF6,1.8139999999999998
K3ReH6,0.0
K3ReMoO8,2.7906
K3ReN3,0.044199999999999996
K3RhCl6,1.7025
K3RhF6,2.1828
K3RhF6,2.0571
K3RhF6,2.0825
K3RuF12,0.0
K3RuF6,0.0
K3RuF6,0.33409999999999995
K3SI,1.0356
K3SO4F,4.9511
K3SO4F,5.2302
K3Sb,0.6773
K3Sb,0.38939999999999997
K3Sb2Au3,1.1046
K3Sb2N2O6F7,2.9622
K3Sb5O14,1.1985000000000001
K3Sb5O14,1.3527
K3Sb7(SO3)3,1.8339999999999996
K3SbBr6,2.96
K3SbCl6,3.3878
K3SbF6,3.8417
K3SbI6,2.3534
K3SbN3(O3F)3,3.0785
K3SbO3,3.2348
K3SbO4,1.8402
K3SbPCO7,0.29110000000000014
K3SbS3,2.6955
K3SbS4,2.1851
K3SbS4,2.1341
K3SbSe3,2.2931000000000004
K3SbSe4,1.4318
K3SbTe3,1.711
K3Sc(MoO4)3,3.9435000000000002
K3Sc(MoO4)3,3.9449
K3Sc(PO4)2,4.2975
K3ScBr6,3.2185
K3ScCl6,4.0074
K3ScCl6,3.9539
K3ScF6,6.1606000000000005
K3ScI6,2.3346
K3ScSi2O7,3.6378
K3ScV2O8,3.0893
K3SeO4F,3.8658
K3Si3N5,2.2395000000000005
K3Si5H2O11,0.0006999999999992568
K3Si6H6N11,3.1132999999999997
K3SiF7,5.9294
K3SiN(OF2)3,3.38
K3SiTe3,1.7179000000000002
K3Sm(AsS4)2,1.6795000000000002
K3Sm(BO3)2,3.4183
K3Sm(PO4)2,5.0138
K3Sm2(NO3)9,3.5115999999999996
K3Sm4(CuTe2)5,0.45889999999999986
K3SmCl6,4.6072
K3SmF6,4.9524
K3SmF6,5.7545
K3SmGa3B12S12I,2.4325
K3SmSi2O7,3.6152999999999995
K3Sn,0.0
K3Sn2P5S18,1.3182999999999998
K3Sn2S3BrO12,3.4126000000000003
K3Sn2S3ClO12,3.9145000000000003
K3Sn4Au,0.3972000000000002
K3Sn5Cl3F10,3.2314
K3SnHF8,5.1576
K3SnIrCl8,1.5941
K3SnPCO7,3.2434000000000003
K3SnSb3,0.022999999999999687
K3SnSb3,0.3965000000000001
K3SnSe3,1.6275999999999997
K3SnTe3,1.2297000000000002
K3Sr,0.0
K3SrPCO7,4.153499999999999
K3Ta2Ag3S8,2.1971999999999996
K3Ta2Ag3Se8,2.076
K3Ta2AsS11,1.8918000000000001
K3Ta2AsSe11,1.1878000000000002
K3Ta2Cu3S8,2.313
K3Ta2Cu3Se8,1.9869999999999999
K3Ta2S11,1.7172999999999998
K3Ta2S11,1.5662000000000003
K3Ta3(BO6)2,2.6703
K3Ta3Si2O13,2.9726
K3Ta8O21,0.0
K3TaBr6,0.0
K3TaCl6,0.0
K3TaF8,3.8497000000000003
K3TaI6,0.0
K3TaNbCu3S8,1.9736
K3TaO2F7,3.6449999999999996
K3TaO2F7,0.0
K3TaO8,3.04
K3TaS4,2.7558000000000002
K3Tb(BO3)2,3.2054
K3TbCl6,4.6505
K3TbF6,5.098599999999999
K3TbF6,6.6915
K3TbGe3(HO5)2,3.9615
K3TbSi2O7,3.688
K3TbSi3(HO5)2,4.603999999999999
K3TcC4(N2O)2,2.1296
K3TeS4,0.0
K3Th2Cu3S7,1.5469999999999997
K3Ti2P5S18,1.1872999999999998
K3Ti3(PO4)5,2.5785
K3Ti8O17,0.0
K3TiCl6,0.061699999999999644
K3TiCl6,0.33540000000000003
K3TiCl6,0.0
K3TiF6,0.0
K3TiFeH4S4O19,2.4305
K3TiO4F3,2.5471
K3Tl,0.0
K3TlAu5,0.0
K3TlBr6,1.3981
K3TlCl6,2.1932
K3TlF6,3.7203999999999997
K3TlF6,3.651
K3TlF6,3.8026
K3TlI6,0.5347999999999999
K3TlPCO7,0.0
K3Tm(PO4)2,5.1379
K3TmCl6,4.6853
K3TmCl6,5.0684
K3TmF6,6.0112000000000005
K3TmF6,5.2542
K3TmF6,6.7339
K3TmSi2O7,3.7555000000000005
K3TmV2O8,3.4169
K3U2I7O26,1.0743999999999998
K3U3Si2O13,0.5497000000000005
K3UF6,0.0
K3UF7,0.7939999999999996
K3UH6C5SNO13,1.6804999999999999
K3UO2F5,2.7138999999999998
K3V(PO4)2,1.9769
K3V(SO)2,2.1321000000000003
K3V(SO5)2,3.1755
K3V14O28,0.0
K3V2(PO4)3,1.7942000000000002
K3V2(S2O9)2,1.4164999999999999
K3V2(S2O9)2,0.25880000000000003
K3V2P2O8F3,2.2474999999999996
K3V3(AsO7)2,2.8636
K3V3(BiO6)2,2.9294000000000002
K3V3O8,1.5455999999999999
K3V5O14,2.2837
K3V5Te4(HO3)8,2.2523
K3VF6,0.0
K3VH2(CO5)2,2.2312
K3VH6C4O13,2.6857
K3VMo3H4O15,2.9506
K3VO4,3.6294
K3VO4,4.0392
K3VO5,0.6883000000000001
K3VPCO7,2.3244999999999996
K3VS4,1.5829999999999997
K3VSO3,3.1383
K3VSe4,1.0358
K3W2(O2F3)2,1.3463
K3W2Cl9,1.3375000000000001
K3W2N5,2.1497
K3WF6,2.8446000000000002
K3WS3ClO,2.777
K3Y(BO3)2,3.1826
K3Y3(BO3)4,4.1596
K3YBr6,3.8147
K3YCl6,4.4246
K3YCl6,5.0477
K3YF6,5.8597
K3YF6,6.459300000000001
K3YI6,3.1873
K3YMgV2O8,1.5764000000000002
K3YSi3O10,0.0
K3YV2O8,3.4086
K3Zn,0.0
K3Zn(BO2)5,4.0518
K3Zn2Cl7,3.6459
K3Zn2F7,4.0269
K3ZnH5,3.7128
K3ZnNCl4O3,3.3079
K3ZnPCO7,3.8609
K3Zr2NF12,5.1675
K3Zr2S(O2F3)3,0.3534999999999999
K3Zr4Ag2F23,0.7016999999999999
K3Zr4Si12HO44,0.0
K3Zr6BeCl15,0.9268999999999998
K3ZrH2S(OF)5,6.031
K3ZrHS(OF)5,0.3878999999999999
K4(BSe)9,2.1812
K4(BSe)9,2.1626
K4(CoO2)7,0.0
K4(NiO2)3,0.6912999999999999
K4(TiTe3)3,0.0
K49Tl108,0.049100000000000144
K4Ag18Te11,0.0
K4Al3(SiO4)3,0.0
K4Al3Si3ClO12,4.5823
K4As2Se5,1.1592
K4AsH5S3O16,3.9373
K4Au6S5,1.5841999999999998
K4B10H4O19,5.1432
K4Ba(GeO3)3,3.4159
K4Ba(SiO3)3,4.2288
K4Ba(SiO3)3,4.196
K4Ba(VS4)2,1.5514000000000001
K4Ba2B14H16O33,4.9133
K4Ba2SnAs4,0.49859999999999993
K4Ba2SnBi4,0.09889999999999999
K4Ba2SnP4,0.7994999999999999
K4Ba2SnSb4,0.3921999999999999
K4BaNb5O15,0.0
K4BaTa6(Si2O13)2,2.8469999999999995
K4BaTi6S20O,1.1155
K4BaTi6S20O,1.1301
K4BaU3O12,2.0698999999999996
K4BaU3O12,1.9898000000000002
K4BaV6O18,3.0658
K4Be3O5,3.2353
K4BeAs2,0.8851000000000001
K4BeP2,1.1360999999999999
K4Bi2O5,2.6155
K4Br2O,0.9912
K4CO4,1.7898
K4CO4,1.4363
K4CO4,2.5012
K4CO4,2.5753000000000004
K4CO4,2.9688
K4CO4,2.5269
K4Ca(SiO3)3,4.2765
K4Ca(WO4)3,2.4664
K4CaU(Si2O7)2,2.0738000000000003
K4CaU3O12,2.1025
K4CaV6O16,0.5269999999999999
K4Cd(P3O10)2,0.215
K4Cd3(PO4)6,0.0
K4CdAs2,0.6091000000000001
K4CdCl6,3.9829999999999997
K4CdP2,0.8246
K4Co(MoO4)3,2.2285
K4Co2O5,1.0221
K4CoMo4O15,0.0
K4Cr(NO5)2,2.8776
K4CrO4,0.0
K4Cu3As4(HO8)2,0.30410000000000004
K4Cu4Cl10O,0.2946
K4Cu4Sn7,0.7216
K4Cu8Te11,0.0
K4CuP6(H4O11)2,0.5959000000000001
K4ErP6H6ClO21,4.8671
K4Eu(PS4)2,0.0
K4Eu(PS4)2,0.7541000000000002
K4Eu(PSe4)2,0.3245999999999998
K4Eu2U(GeO4)4,0.0
K4Fe2O5,0.7339000000000001
K4Fe2O7,0.0
K4Fe4(PO4)5,0.0043999999999999595
K4Ga8P8O32F,0.0
K4GaAu8,0.0
K4Gd2C3O9F4,2.7032
K4Gd2C3O9F4,2.4162
K4Ge(PS3)4,2.1265
K4Ge(PSe3)4,1.3986
K4Ge23,0.0
K4Ge2Au7,0.0
K4Ge2B8H2O19,4.1044
K4Ge9O20,3.0665
K4GeH4N2O3,2.4271000000000003
K4GeO4,2.7733
K4GeO4,2.7837
K4GeS4,2.7133
K4GeSe4,2.0003
K4H5(SeO4)4,0.0
K4H6C2O9,3.8796
K4H6W2S2O9,4.039
K4Hf3Mn(PO4)6,4.3944
K4Hf3Te17,0.6830000000000003
K4Hf5O12,3.2739999999999996
K4HfO4,2.9052
K4Hg3Ge20,0.0
K4HgAs2,0.6976000000000001
K4HgP2,0.9356000000000001
K4Ho2MgNb10O30,0.0
K4I2O,1.2568000000000001
K4I2O9,1.9183
K4In2Si8O21,4.0426
K4In3Ge20,0.0
K4IrO4,0.4281999999999999
K4La6OsI14,0.0
K4Li(CO3)2,0.0
K4Li3(FeO4)2,0.14089999999999997
K4Li3Mn2O8,0.46630000000000016
K4Li3Nb18P12(WO42)2,0.8404
K4Li5(FeO4)2,0.013999999999999957
K4Li5Cr2O8,1.079
K4Li5Mn2O8,0.5408
K4Li5Ti8(PO5)8,0.011400000000000077
K4Li7Mn2O8,0.0
K4LiH3(SO4)4,4.7492
K4LiH3(SO4)4,5.394
K4LiIO6,2.0858
K4LiMn4O8,0.0
K4Mg(MoO4)2,1.4842000000000002
K4Mg(MoO4)2,1.5548000000000002
K4Mg(MoO4)3,4.3065
K4Mg(TiS3)2,0.3571
K4Mg(WO4)3,4.6083
K4Mg2H16S4O23,3.6738
K4MgCu3F12,0.0
K4MgFe3(PO4)5,2.2881
K4MgMn4O8,0.0
K4MgMn4O8,0.9696000000000002
K4MgMn4O8,0.8820999999999999
K4MgMo2(SO3)2,1.6681
K4MgNb2(AgS4)2,0.0
K4MgNb2(CuS4)2,0.0
K4MgNb2(CuS4)2,0.014800000000000146
K4MgNb4(Si2O7)4,0.0
K4MgTi2O6,0.4948999999999999
K4MgV2(AgS4)2,0.0
K4MgV2(CuS4)2,0.0
K4MgV2O7,1.0518999999999998
K4MgV2O7,1.4462
K4MgV2O7,1.2805
K4MgV6O16,1.0277999999999998
K4MgV6O16,0.7402
K4MgV6O16,0.5764999999999998
K4MgV6O16,1.0113
K4MgV6O16,0.0484
K4MgZn4H16(Br3O2)4,0.8253999999999999
K4MgZn4H16(Br3O2)4,2.1321999999999997
K4MgZn4H16(Br3O2)4,1.2519
K4MgZn4H16(Br3O2)4,2.1467
K4Mn(AsS4)2,0.8470000000000002
K4Mn(MoO4)3,3.0225000000000004
K4Mn2H16S4O23,3.4
K4Mn3F12,0.84
K4Mn3P6(HO3)8,3.7533000000000003
K4MnBr6,2.3071
K4MnCl6,2.3906
K4MnH6(S2O9)2,4.6259
K4MnMo4O15,3.0885
K4MnO4,1.4906
K4Mo2H6S2O9,3.3716999999999997
K4Mo3H4O17,2.2188999999999997
K4Mo5H4Se2O23,2.913
K4Mo6PtO26,0.31079999999999997
K4MoO5,3.1685000000000003
K4MoS3O14,2.7201
K4MoWO8,4.4095
K4N2O5,0.0
K4N2O5,0.14380000000000015
K4Na2(Si2O5)3,4.1851
K4Na2FeH3F12,4.0785
K4Na2H18Pd(IO10)2,1.6804000000000001
K4Na2TeO6,2.1936999999999998
K4Na4Mo3W5O24,0.19309999999999983
K4Na4Mo5(WO8)3,0.593
K4Na4Mo7WO24,0.0
K4Na4MoW7O24,0.0
K4Na4Nb3W5O24,0.0
K4Na4NbW7O24,0.0
K4Na4VMo7O20,0.6044999999999998
K4NaCl5,4.5971
K4NaCl5,5.0019
K4NaCl5,4.8944
K4NaCl5,4.9984
K4NaCl5,4.9787
K4NaNb5O15,2.0385
K4Nb11Al2O20F,0.6848999999999998
K4Nb15O24,0.0
K4Nb2S10O,1.5316999999999998
K4Nb2S11,1.3941999999999999
K4Nb2Se11O,1.1649999999999998
K4Nb2Si8O23,3.7939999999999996
K4Nb2Si8O23,3.7358
K4Nb6O17,2.6689
K4Nb8Si(P2O17)2,1.8862999999999999
K4NbFe3(PO4)6,2.3259
K4Ni(NO2)6,1.8294
K4Ni7(AsO4)6,2.6399999999999997
K4Np3H8Cl7O10,0.24180000000000001
K4NpS2ClO10,0.1987000000000001
K4P21I,1.2638000000000003
K4P2O7,3.7435
K4P2PdS8,1.7116
K4P3,0.0
K4P4(H2O5)3,4.9587
K4P4H7(RuO9)2,0.4534999999999998
K4P4O5,2.1608
K4PH5S3O16,5.2584
K4PH5Se3O16,3.6779
K4PH5Se3O16,3.7687999999999997
K4PSe3O16,0.0814999999999999
K4Pb2Br8O,0.4118
K4Pb9,0.28259999999999996
K4PbO3,2.279
K4PbO4,1.7002000000000002
K4PdPt(NO2)8,2.2475
K4Pt2(SO4)5,1.7050999999999998
K4Pt2I9,0.0
K4Rb2Co2O5,1.0943000000000003