formula,band_gap
CsRb2GdCl6,3.2239000000000004
CsRb2InBr6,2.6764
CsRb2InCl6,3.5527
CsRb2InF6,4.8289
CsRb2IrF6,2.3735
CsRb2LuCl6,4.4735
CsRb2MoF6,3.0636
CsRb2NbF6,0.0
CsRb2PdF5,1.7853
CsRb2PdF6,0.0
CsRb2RhF6,2.2145
CsRb2Sb,0.6525000000000001
CsRb2Sb4F15,4.0177000000000005
CsRb2SbCl6,3.3826
CsRb2SbF6,3.3907000000000003
CsRb2ScBr6,3.3122
CsRb2ScCl6,4.083
CsRb2ScF6,5.8718
CsRb2SiF7,5.4931
CsRb2TbCl6,4.4361
CsRb2TiF6,0.0
CsRb2TlBr6,1.7076
CsRb2TlF6,3.6496
CsRb2TmCl6,4.4646
CsRb2VF6,0.0
CsRb2YBr6,3.7632000000000003
CsRb2YCl6,4.422700000000001
CsRb2YF6,5.4863
CsRb3,0.0
CsRb3(Mo3O10)2,3.3657
CsRbAs,0.0
CsRbAu2,0.7103
CsRbMnF6,3.3815
CsRbMo3O10,3.3547000000000002
CsRbMo3P3O17,2.3034999999999997
CsRbO,1.2535999999999998
CsRbSO4,4.8740000000000006
CsRbZr6BCl15,1.0453000000000001
CsRe(Cl2O)2,1.4875
CsRe2OsSe4Cl3,2.1060000000000003
CsRe3(O3F5)2,3.0448
CsRe3(S2Br)2,1.8417000000000001
CsRe3(Se2Br)2,1.4231
CsRe6S8Br3,1.3477000000000001
CsRe6Se8I3,0.9430999999999998
CsReBr4,0.4053
CsReBrCl3,1.1778
CsReCl4,1.1341999999999999
CsReF6,0.0
CsReF8,1.7181000000000002
CsReN2,0.0
CsReO4,4.2585
CsReO4,4.1579999999999995
CsReOF6,2.9741
CsReS2,1.2522000000000002
CsRuF6,1.2351999999999999
CsS,1.7260000000000002
CsS2(O3F)2,0.3032999999999999
CsS2N(O2F)2,5.4992
CsS3,1.6567
CsSO2F,4.4107
CsSO3,0.4314
CsSO3,5.1114999999999995
CsSO3F,5.164499999999999
CsSO4,0.11029999999999995
CsSO4,0.11740000000000006
CsSO4,0.1049
CsSO4,3.5016
CsSO4,0.07329999999999992
CsSb,0.5215999999999998
CsSb,0.5557999999999996
CsSb(PO4)2,2.958
CsSb(SO4)2,4.089700000000001
CsSb2F11,4.2075
CsSb2F7,3.1755
CsSb2F7,4.3035
CsSb2F7,4.1067
CsSb2PO8,1.9806
CsSb3F16,3.7601
CsSb4F13,4.5892
CsSbCl6,2.0825
CsSbClF3,3.6597
CsSbF4,4.4026
CsSbF6,5.0381
CsSbH4O5,3.4555
CsSbO2,2.3758000000000004
CsSbOF4,3.5887
CsSbPO4F3,1.6413
CsSbS(O2F)2,4.6564
CsSbS2,1.7363999999999997
CsSbS6,1.7828
CsSbS6(O3F)6,2.6292
CsSbSI2,0.13390000000000013
CsSbSI2,0.14579999999999993
CsSbSI2,0.12309999999999999
CsSbSI2,0.13600000000000012
CsSbSI2,0.11280000000000001
CsSbSI2,0.07200000000000006
CsSbSI2,0.0
CsSbSe2,1.1312
CsSbTe6(OF5)6,2.9181999999999997
CsSbTeO6,0.9535999999999998
CsSbWO6,2.7263
CsSbWO6,0.11430000000000007
CsSc(SO4)2,4.1888000000000005
CsSc(SeO3)2,4.1332
CsSc(WO4)2,4.1422
CsSc(WO4)2,4.1966
CsSc3(CuTe3)2,0.006999999999999673
CsSc3F10,5.3828
CsSc3H6(Se3O10)2,4.2325
CsScAgF6,0.006699999999999928
CsScAs2(HO4)2,3.7284
CsScAs2(HO4)2,3.6849
CsScBr3,0.0
CsScCl3,0.0
CsScCuF6,0.0
CsScI3,0.0
CsScO2,2.9595000000000002
CsScP2(HO4)2,4.8328999999999995
CsScUSe5,0.0
CsSe4,0.9736
CsSeBr3,0.0
CsSeO4,0.0
CsSeO4,0.5336000000000001
CsSi,1.5634000000000001
CsSi,1.2115
CsSi2BO6,5.258900000000001
CsSi2H18C6N,2.8221
CsSi2HO5,4.7013
CsSi2HO5,4.803
CsSi2Mo3P6O25,1.3245000000000002
CsSi2SbO7,3.2270999999999996
CsSi3HO7,4.7963000000000005
CsSi3O7,0.7375999999999999
CsSiBiS4,2.4826
CsSiI3,0.8319999999999999
CsSiSbO5,2.1916999999999995
CsSiTe3,1.2612999999999999
CsSm(MoO4)2,3.6407
CsSm(MoO4)2,3.6731000000000003
CsSm(MoO4)2,3.2264999999999997
CsSm(NbBr3)6,0.9853000000000001
CsSm(PO3)4,5.5031
CsSm(PO3)4,5.6019
CsSm(WO4)2,3.4736000000000002
CsSm2Ag3Te5,1.1579000000000002
CsSm2Cl7,4.4861
CsSm2Cu3Se5,1.2541000000000002
CsSm2CuSe4,0.9508000000000001
CsSm2I5,0.0
CsSm2Ti2NbO10,1.4476
CsSmBr3,0.0
CsSmCdSe3,2.0217
CsSmCdTe3,1.5693000000000001
CsSmCl3,0.0
CsSmGeS4,2.4631
CsSmGeSe4,1.6665
CsSmHgSe3,1.3625
CsSmI3,0.0
CsSmMnSe3,0.5311999999999999
CsSmO2,2.9281000000000006
CsSmS2,2.1397
CsSmSiS4,2.8414
CsSmZnSe3,2.0423999999999998
CsSmZnTe3,1.4086000000000003
CsSn,0.7471999999999999
CsSn,1.1371000000000002
CsSn2Br5,2.4409
CsSn2Cl5,3.0582000000000003
CsSn3,0.0
CsSnBr3,0.9682000000000002
CsSnBr3,0.5984
CsSnCl3,0.9786999999999999
CsSnCl3,2.9154
CsSnF3,3.7852
CsSnF3,3.099
CsSnF3,3.828
CsSnI3,2.0632
CsSnI3,0.6174999999999997
CsSnI3,0.44999999999999973
CsSnI3,0.5537000000000001
CsSnPS4,2.1236
CsSnS3,1.6557000000000002
CsSnSe3,1.1895999999999998
CsSnSe3,1.0499000000000003
CsSr(BH4)3,5.3107
CsSr2I5,3.6758
CsSr2MgNb3O10,0.0
CsSr2Nb3O10,1.4423
CsSr2Ta3O10,2.0452000000000004
CsSr3,0.0
CsSrBr3,4.5563
CsSrBr3,4.1683
CsSrBr3,4.4089
CsSrCl3,5.0049
CsSrCl3,5.3366
CsSrCl3,4.970000000000001
CsSrCl3,5.0298
CsSrCl3,5.2868
CsSrF3,6.1846
CsSrI3,3.959
CsSrI3,3.6132
CsSrN9,3.8236000000000003
CsSrSiHO4,3.9486
CsSrSiHO4,3.9558999999999997
CsSrTa6Cl18,0.14360000000000017
CsTa(BO3)2,3.4027
CsTa(CuTe2)2,1.2436999999999996
CsTa(PO4)2,3.3857000000000004
CsTa2P5O18,2.9928
CsTa4P3S19,1.1975
CsTa6PbCl18,0.0
CsTaCl6,2.9077
CsTaCo(OF2)2,2.6894
CsTaGeS5,0.9885000000000002
CsTaI6,1.1787
CsTaN2,2.1446
CsTaPS6,1.7818
CsTaPS6,1.5394999999999999
CsTaS3,0.5150999999999999
CsTaSe3,0.12129999999999974
CsTaSe3,0.08680000000000021
CsTaTe3,0.0
CsTaV2O8,2.7305
CsTaWO6,3.1466000000000003
CsTb(MoO4)2,3.1178999999999997
CsTb(MoO4)2,3.6397
CsTb(NbBr3)6,0.9606999999999999
CsTb(PO3)4,5.3063
CsTb(WO4)2,3.4158000000000004
CsTb2Ag3Se5,1.0943999999999998
CsTb2Ag3Te5,1.0619999999999998
CsTb2Cl7,4.5419
CsTb2Cu3Se5,1.1974
CsTbCdSe3,2.0647
CsTbCdTe3,1.5409000000000002
CsTbF5,0.0
CsTbMnSe3,0.5118
CsTbP2O7,5.1362
CsTbS2,2.1420000000000003
CsTbS2,2.2053999999999996
CsTbSiS4,2.8851999999999998
CsTbZnSe3,2.1028000000000002
CsTbZnTe3,1.3573
CsTc3(Se2Br)2,1.0219
CsTcO4,3.4143999999999997
CsTe,1.0019
CsTe4,0.5148999999999995
CsTe7,0.11240000000000006
CsTe7Mo6,0.0
CsTeAu,1.4160000000000001
CsTeAu,1.2976999999999999
CsTeF5,4.6339
CsTeSe3,0.9842
CsTh2(PO4)3,4.5121
CsTh3F13,6.4017
CsThMo2ClO8,3.2972
CsThO3,0.0
CsTi(NbCl3)6,0.0
CsTi(PS4)2,1.3716000000000002
CsTi2(CuTe4)2,0.0
CsTi2(OF)3,2.8299
CsTi2Cl7,0.0
CsTi2I7,0.19019999999999992
CsTi2P3(O5F2)2,2.7218
CsTi3AlO8,2.5601
CsTi3P5O19,2.4743000000000004
CsTi3P5O19,2.7906
CsTi3Si2P6O25,0.0
CsTi5Se8,0.0
CsTi6O12,0.0
CsTi8F33,4.5689
CsTi8O16,0.0
CsTiAlO4,3.8816
CsTiAsO5,3.0051
CsTiBr3,0.0
CsTiCl3,0.0
CsTiCoOF5,2.3608000000000002
CsTiCu3Se4,1.4611
CsTiCu3Se4,1.0155000000000003
CsTiCuOF5,0.0
CsTiF4,0.0
CsTiH10C4O13,0.5586
CsTiH10C4O13,0.0
CsTiH24(SO10)2,0.08570000000000011
CsTiH24(SO10)2,0.0
CsTiI3,0.0
CsTiMnOF5,1.6313000000000002
CsTiNb(O2F)2,2.4272
CsTiNiOF5,3.1081
CsTiP2O7,0.16639999999999944
CsTiS2,0.0
CsTiZnOF5,3.1448
CsTl3O5,0.35550000000000015
CsTlAgF6,0.29399999999999993
CsTlBr3,0.4264
CsTlBr3,0.9984999999999999
CsTlBr4,1.9724
CsTlCl3,0.0
CsTlCl3,1.2584
CsTlCuF6,0.0
CsTlF3,2.1858
CsTlF3,0.0
CsTlF4,2.8001
CsTlF4,2.7921
CsTlI3,0.0
CsTlI4,1.238
CsTlO,1.3911000000000002
CsTlO2,0.9780999999999995
CsTlS2,1.269
CsTm(MoO4)2,2.9972
CsTm(MoO4)2,3.5623000000000005
CsTm(MoO4)2,3.5846999999999998
CsTm(NbBr3)6,0.9403999999999999
CsTm(WO4)2,3.3918
CsTm(WO4)2,4.7348
CsTm2Cl7,4.6387
CsTm2Cu3Se5,1.2472999999999996
CsTmBr3,0.0
CsTmCdTe3,1.548
CsTmCoS3,0.0
CsTmMnSe3,0.5038
CsTmO2,2.7760000000000002
CsTmP2O7,5.2379999999999995
CsTmP4(H2O3)6,5.4054
CsTmS2,2.2239999999999998
CsTmS2,2.1573
CsTmSeCl2O3,4.227
CsTmSiS4,2.9693000000000005
CsTmZnSe3,2.1715999999999998
CsTmZnTe3,1.3838999999999997
CsU(OF)3,0.20099999999999985
CsU(PO4)2,0.6022000000000003
CsU(SeO4)2,0.0
CsU2(PO4)4,0.017200000000000326
CsU2F9,0.17790000000000017
CsU2F9,0.11179999999999968
CsU2H3(C2O7)2,2.0856
CsU2O6,0.000600000000000378
CsU2O6,0.0
CsU6F25,0.01100000000000012
CsUAgS3,0.0
CsUAgSe3,0.0
CsUAuSe3,0.0
CsUCrO6,0.6384999999999996
CsUCuS3,0.0
CsUCuSe3,0.0
CsUCuTe3,0.0
CsUF6,0.9396999999999999
CsUGa(PO5)2,2.311
CsUN3O11,3.0783
CsUNbO6,2.1254
CsUO3,0.4571000000000005
CsUP3O11,3.9026
CsUPNO9,0.13779999999999992
CsUSbO6,1.6823000000000001
CsUTe3Au,0.0
CsUTe6,0.042300000000000004
CsUTiTe5,0.0
CsUV3O11,2.1691
CsUVO6,2.1559
CsUVO6,1.946
CsV(MoO4)2,0.0
CsV(NO4)2,1.7603
CsV(PO3)4,0.017000000000000348
CsV(SO4)2,0.0
CsV2(PO6)2,0.249
CsV2CrO7,2.1697
CsV2I3O13,1.5128
CsV2O5,0.0
CsV2O5,1.4234
CsV2O5,0.08939999999999992
CsV2P3O14,0.1499
CsV2P5O16,2.1351999999999998
CsV2S2O,0.0
CsV2SbO8,2.7044
CsV3(SeO6)2,2.3398
CsV3(TeO6)2,2.3111
CsV3B2P4(H4O11)2,0.0
CsV3O8,2.0705999999999998
CsV5S8,0.0
CsV5Se8,0.0
CsVBr3,0.6528
CsVCl3,0.4834999999999998
CsVCoF6,2.2164
CsVCuF6,0.0
CsVF4,0.0
CsVFeF6,1.814
CsVGa(PO5)2,0.6753999999999999
CsVH12(C2O7)2,0.03590000000000004
CsVH12(C2O7)2,2.7577000000000003
CsVH24(SO10)2,4.8327
CsVI3,0.5972999999999997
CsVN2,0.5028000000000001
CsVNiF6,2.3655
CsVO3,3.1105
CsVOF3,2.7058
CsVOF4,3.5464
CsVP2O7,1.5429
CsVP2S7,0.0
CsVP3HO10,0.0
CsVPO5,2.8884
CsVSO6,2.141
CsVSO6,2.1304
CsVSO6,2.1791
CsVSeO5,3.0977
CsVTeO6,1.7666
CsVWO6,1.787
CsVZn(PO3)6,0.0
CsVZnF6,2.2965999999999998
CsW3Br3Cl4,2.9901999999999997
CsW3Br7,2.6370999999999998
CsW3Br7,2.7127
CsW3Cl7,2.9160999999999997
CsW3I3Cl4,2.901
CsWCl6,0.0
CsWF7,4.1958
CsXe3O3F13,2.8118999999999996
CsXeF7,3.2665999999999995
CsY(BH4)4,5.7043
CsY(MoO4)2,3.6086
CsY(MoO4)2,3.6146000000000003
CsY(MoO4)2,3.9764
CsY(NbBr3)6,0.9779000000000002
CsY(PO3)4,5.1333
CsY(SeO3)2,4.102
CsY(WO4)2,3.4186000000000005
CsY10(C2I9)2,0.0
CsY2Cl7,4.4204
CsY2CuTe4,0.6872999999999996
CsY3O5,3.8051000000000004
CsYCdSe3,2.0854999999999997
CsYHgSe3,1.3946
CsYMg14,0.0
CsYMg30O32,2.9483000000000006
CsYMg30O32,1.7733999999999996
CsYMnSe3,0.5245000000000002
CsYO2,2.8461
CsYP2O7,5.1175
CsYSeCl2O3,4.2892
CsYZnSe3,2.1117
CsYZnTe3,1.4051000000000005
CsZn2B3O7,3.5131
CsZn2P2HO8,3.9656
CsZn3(PO4)3,0.0
CsZn4(BO3)3,2.8259999999999996
CsZn4As3,0.0
CsZn4P3,0.12020000000000008
CsZn8,0.0
CsZnAgC4(SN)4,2.8679
CsZnB(PO4)2,4.9295
CsZnCoF6,1.6216
CsZnFeF6,2.2145
CsZnNiF6,0.0
CsZnPO4,3.8874999999999997
CsZnPO4,3.9671000000000003
CsZnPO4,4.0751
CsZr(NO3)5,4.3198
CsZr18(PI14)3,0.0
CsZr2(PO4)3,4.3061
CsZr2Al(PO4)4,4.0152
CsZr6BI14,0.7638000000000003
CsZr6CCl15,1.1421000000000001
CsZr6CI14,0.0
CsZr6MnCl14,1.234
CsZr6MnI14,0.8649
CsZrCuSe3,0.2984
CsZrUTe5,0.0
Cu,0.0
Cu(AgO)2,0.0
Cu(AsO2)2,0.0
Cu(BO2)2,0.0
Cu(Bi4Ir)3,0.0
Cu(BiO2)2,0.0
Cu(BrO4)2,0.4316
Cu(HO)2,0.0
Cu(HO)2,0.19400000000000017
Cu(IO3)2,0.3144999999999998
Cu(IO3)2,0.49990000000000023
Cu(IrS2)2,0.0
Cu(Mo3S4)2,0.0
Cu(Mo3Se4)2,0.0
Cu(NO3)2,0.0
Cu(NO3)2,0.5647
Cu(NiO2)2,0.0
Cu(PO3)2,0.0
Cu(PO3)3,0.31289999999999996
Cu(PO3)3,0.0
Cu(PtS2)2,0.14010000000000034
Cu(RhO2)2,0.0
Cu(RhS2)2,0.0
Cu(RhSe2)2,0.0
Cu(SbO2)2,0.48130000000000006
Cu(SbO2)2,0.0
Cu(SbO3)2,0.0
Cu(SnS2)4,0.0
Cu(TeO3)4,0.0
Cu10Bi25O48,0.0
Cu10Hg2Sb4S13,0.0259999999999998
Cu10N3,0.0
Cu10Sb3,0.0
Cu10Sn3,0.0
Cu11Sb3,0.0
Cu11Sb4S13,1.1888999999999994
Cu12As4S13,0.0
Cu12Mo3S5O36,0.0
Cu12Sb3AsS16,0.0
Cu12Sb4S13,0.0
Cu13I15,0.0
Cu13Se8,0.0
Cu14I19,0.0
Cu15Bi4(Se4I)4,0.0
Cu15Si4,0.0
Cu16I19,0.0
Cu17Se10,0.0
Cu18S11,0.0
Cu19Se11,0.0
Cu19Sn16,0.0
Cu2(ReS2)3,0.7103999999999999
Cu2(ReSe2)3,0.19830000000000014
Cu2(SO4)3,0.028799999999999937
Cu2(SO4)3,0.0
Cu2(SO4)3,0.05479999999999996
Cu23(Sb4S13)2,0.0
Cu25Se26,0.0
Cu27Se20,0.0
Cu29(Ag6As7)2,0.19789999999999974
Cu29Se19,0.0
Cu2Ag(SO5)2,0.0
Cu2Ag(SeO5)2,0.0
Cu2Ag2O3,0.0
Cu2Ag5Se4NO15,0.5250000000000001
Cu2AgBiPbS4,0.5293000000000001
Cu2AgH(SO5)2,0.34299999999999997
Cu2AgH(SeO5)2,0.34019999999999984
Cu2AgO4,0.0
Cu2AgPS4,1.0718000000000005
Cu2As,0.0
Cu2As(HO3)2,0.0
Cu2As2O7,0.0
Cu2As2PbO10,0.0
Cu2As3,0.0
Cu2As4S3Cl2,1.1463
Cu2As9P3S9I2,2.0858
Cu2AsClO4,0.0
Cu2AsO5,0.0
Cu2B3Ir4,0.0
Cu2BH5O6,0.04090000000000016
Cu2Bi3Sb3O14,0.0
Cu2Bi4Pb2S9,0.5672999999999995
Cu2Bi5Pb5S14,0.0
Cu2Bi8Pb2S15,0.6154000000000002
Cu2Bi8Pb3Se3S13,0.35050000000000026
Cu2Bi8Pb6S19,0.3487999999999998
Cu2Bi8Pb6S19,0.5230000000000006
Cu2BiAsO6,0.0
Cu2BiPO6,0.0
Cu2BiTeSO10,0.08309999999999995
Cu2BrCl,0.21720000000000006
Cu2BrO3,0.0
Cu2CO5,0.0253000000000001
Cu2CO5,0.01419999999999999
Cu2Cl2O,0.0
Cu2ClO3,0.0
Cu2GeO4,0.0
Cu2GeP2(H5O7)2,0.3140999999999998
Cu2GeS3,0.02579999999999938
Cu2GeS3,0.04659999999999975
Cu2GeS3,0.11109999999999953
Cu2GeS4,0.0
Cu2GeSe3,0.0
Cu2GeSe4,0.0
Cu2GeTe3,0.0
Cu2H10C6S3N4,2.4894999999999996
Cu2H10C6S3N4,2.7026999999999997
Cu2H10N4O17,1.0384
Cu2H12C4Br3N,1.7288000000000001
Cu2H13C2S2NO11,0.0
Cu2H18N7F2,0.0
Cu2H26C6S7N12O5,2.0622
Cu2H2CO5,0.0
Cu2H2Se2O7,0.1964999999999999
Cu2H3ClO3,0.0
Cu2H3ClO3,0.2633000000000001
Cu2H3NO5,0.0
Cu2H3NO6,0.0
Cu2H4CO5,0.0
Cu2H5C3N3O5,2.9341
Cu2H6C3(BrN3)2,2.4623
Cu2H6C3N4O,2.1485
Cu2H6Pb5C(SO7)3,0.5598000000000001
Cu2Hg2SF6,0.0
Cu2HgGeS4,0.0
Cu2HgGeS4,0.04560000000000031
Cu2HgGeSe4,0.0
Cu2HgI4,0.5589000000000004
Cu2HgI4,0.31789999999999985
Cu2IO3,0.0
Cu2Mo3Se4,0.0
Cu2MoSeO7,0.0
Cu2NO6,0.0019000000000000128
Cu2NO6,0.01730000000000001
Cu2NiO4,0.0
Cu2NiO4,0.09189999999999987
Cu2NiSn,0.0
Cu2NiSn3S8,0.0
Cu2NiSnO4,0.0
Cu2NiSnS4,0.0
Cu2NiSnSe4,0.0
Cu2NiTeO6,0.2721
Cu2O,0.5126999999999997
Cu2O3,0.0
Cu2O3,0.13600000000000012
Cu2OF2,0.045899999999999996
Cu2OF2,0.0
Cu2OF2,0.10159999999999991
Cu2P2O7,0.0
Cu2P2PbO8,0.0
Cu2P3O10,0.0
Cu2P7,0.8419999999999996
Cu2P8Se3Br2,1.2898999999999998
Cu2P8Se3I2,1.3297999999999996
Cu2PHO5,0.0
Cu2PO4,0.0
Cu2PO4F,0.0
Cu2PO5,0.0
Cu2PPd2,0.0
Cu2Pb(SeO3)3,0.2694000000000001
Cu2Pb5C(SO7)3,0.0
Cu2PbO2,0.6290000000000004
Cu2PbSe2(ClO3)2,0.0
Cu2Pd3Se4,0.0
Cu2PdAu,0.0
Cu2S,0.0
Cu2S,0.16049999999999986
Cu2S,1.2158000000000002
Cu2S,0.2778999999999998
Cu2S,0.13030000000000008
Cu2SO4,1.4363999999999995
Cu2SO4,1.4764000000000004
Cu2SO5,0.0
Cu2Sb,0.0
Cu2Se,0.05099999999999927
Cu2Se,0.051899999999999835
Cu2Se,0.0
Cu2SeO4,0.0
Cu2SeO4,0.32420000000000027
Cu2SeS3,0.6345999999999998
Cu2Si2Pb7(S2O13)2,0.3836000000000004
Cu2Si3H24C8(N10F9)2,3.4927
Cu2SiHgS4,0.40109999999999957
Cu2SiHgSe4,0.016100000000000225
Cu2SiHgTe4,0.0
Cu2SiO4,0.0
Cu2SiPbS4,1.3431999999999995
Cu2SiS3,0.6398000000000001
Cu2SiS3,0.8566000000000003
Cu2SiS3,1.1178999999999997
Cu2SiS3,0.0
Cu2SiS3,1.197
Cu2SiSe3,0.2386999999999997
Cu2SiTe3,0.0
Cu2SiTe3,0.1598999999999995
Cu2Sn2Pd,0.0
Cu2SnHgS4,0.0
Cu2SnHgSe4,0.0
Cu2SnHgTe4,0.0
Cu2SnS3,0.018299999999999983
Cu2SnS3,0.0
Cu2SnS3,0.03410000000000046
Cu2SnSe3,0.0
Cu2SnSe3,0.08579999999999988
Cu2SnSe3,0.019099999999999895
Cu2SnSe4,0.0
Cu2SnTe3,0.0
Cu2Te,0.0
Cu2Te2Br2O5,0.060100000000000264
Cu2Te2Cl2O5,0.07489999999999997
Cu2Te2Pb(ClO3)2,0.0
Cu2Te3O8,0.0
Cu2TeO6,0.03630000000000022
Cu2W2O7,0.6292000000000004
Cu2WO4,0.9449999999999998
Cu2WO4,1.3177000000000003
Cu2WO4,1.3776000000000002
Cu2WS4,1.3590999999999998
Cu2WS4,1.4443000000000001
Cu2WSe4,0.0
Cu2WSe4,1.2756999999999996
Cu3(AsO4)2,0.0
Cu3(BO3)2,0.042100000000000026
Cu3(BiI4)4,0.0
Cu3(CO4)2,0.0
Cu3(GeO3)4,0.0
Cu3(I3O10)2,0.0028999999999999027
Cu3(IN)4,0.06359999999999999
Cu3(Mo3S4)4,0.0
Cu3(MoO3)4,0.3132999999999999
Cu3(MoO3)4,0.0
Cu3(MoO3)4,0.3167
Cu3(MoO5)2,0.0
Cu3(NiO3)4,0.0
Cu3(OF)2,0.03200000000000003
Cu3(OF)2,0.0
Cu3(P2O7)2,0.0
Cu3(PO4)2,0.0
Cu3(SbO3)4,0.0
Cu3(SnO3)4,0.0
Cu3(TeO5)2,0.09529999999999994
Cu3(WO3)4,0.0
Cu39S20,0.0
Cu3Ag,0.0
Cu3Ag2Bi7Pb3S16,0.3064
Cu3Ag2P2O9,0.0
Cu3Ag3(PS4)2,0.9971999999999994
Cu3Ag5(PO4)4,0.0
Cu3As,0.0
Cu3As2H2PbO10,0.0
Cu3As4(OF)6,0.0
Cu3As4H18C8Br3(NO2)2,2.8057000000000003
Cu3As4H18C8I3(NO2)2,2.778
Cu3AsF12,0.0
Cu3AsO7,0.15649999999999986
Cu3AsO7,0.0
Cu3AsS3,0.0
Cu3AsS4,0.0
Cu3AsSe4,0.0
Cu3Au,0.0
Cu3B4Pb2O11,0.0
Cu3B5Pt9,0.0
Cu3B6H2O13,0.3612000000000002
Cu3B7BrO13,0.0
Cu3B7ClO13,0.13239999999999963
Cu3B7IO13,0.0
Cu3BO5,0.0
Cu3Bi2(PO7)2,0.017100000000000115
Cu3Bi2(PO7)2,0.0
Cu3Bi2S3Br2,0.0
Cu3Bi2S4Br,0.8068
Cu3Bi2S4Cl,0.8113000000000001
Cu3Bi7(PbS5)3,0.6940999999999997
Cu3BiS3,0.7058
Cu3BiSe2BrO8,0.0
Cu3BiSe2ClO8,0.0
Cu3BiSe2IO8,0.0
Cu3BiTe2ClO8,0.17849999999999966
Cu3Ge,0.0
Cu3Ge(PO5)2,0.0
Cu3H2(CO4)2,0.0
Cu3H2(OF2)2,0.3217000000000001
Cu3H4SO8,0.0
Cu3H4SeO8,0.0
Cu3H8S4(NO8)2,0.4179999999999999
Cu3Hg2(Te3O8)2,0.21519999999999984
Cu3Mo(HO2)4,0.0
Cu3Mo2(HO5)2,0.41169999999999995
Cu3Mo2(HO5)2,0.0
Cu3Mo2(HO5)2,0.19989999999999997
Cu3Mo2O9,0.0
Cu3Mo8Br2O23,0.019299999999999873
Cu3MoH24C8S3I3N2O,1.9705000000000001
Cu3MoSO9,0.0
Cu3N,0.1947000000000001
Cu3Ni,0.0
Cu3Ni(CO5)2,0.0
Cu3NiF6,0.0
Cu3NiH6(ClO3)2,0.0
Cu3NiHgSe4,0.0
Cu3NiP2O9,0.3954000000000004
Cu3NiPbSe4,0.0
Cu3O2,0.0
Cu3O4,0.0
Cu3OF5,0.0
Cu3P,0.0
Cu3P(SeS)2,0.4206000000000003
Cu3P15I2,0.8552999999999997
Cu3P2H2O9,0.0
Cu3P4(SBr)3,1.4822999999999995
Cu3P4(SI)3,1.5135999999999998
Cu3P4H24C6(NO8)2,0.8172
Cu3P4H8N2(O3F)4,0.6221000000000001
Cu3P4Pb3O16,0.49719999999999986
Cu3P4S4I3,1.4300000000000002
Cu3P4Se4Br3,1.1478000000000002
Cu3P8(S2Cl)3,1.7878000000000003
Cu3P8(Se2Br)3,1.3645999999999998
Cu3P8(Se2I)3,1.3756
Cu3PF12,0.0
Cu3PO7,0.008199999999999985
Cu3PS4,1.0202
Cu3PSe4,0.0
Cu3Pb2Se2(NO7)2,0.4208000000000003
Cu3Pd,0.0
Cu3Pd13S7,0.0
Cu3Pd2,0.0
Cu3PdAu4,0.0
Cu3PdN,0.0
Cu3Pt,0.0
Cu3Rh,0.0
Cu3S2,0.0
Cu3SO8,0.04189999999999994
Cu3Sb,0.0
Cu3Sb(PO4)4,0.0021999999999997577
Cu3Sb4(OF)6,0.0
Cu3SbF12,0.0
Cu3SbS3,0.9982999999999995
Cu3SbS3,0.29859999999999953
Cu3SbS3,0.0
Cu3SbS4,0.0
Cu3SbSe3,0.4884000000000004
Cu3SbSe4,0.0
Cu3Se2,0.0
Cu3Se2(ClO3)2,0.0
Cu3Se2(ClO3)2,0.00649999999999995
Cu3SeO8,0.04159999999999997
Cu3Si,0.0
Cu3Sn,0.0
Cu3Sn(PO4)4,0.0
Cu3Sn4PbO12,0.5396999999999998
Cu3SnAu,0.0
Cu3Te,0.0
Cu3Te2,0.0
Cu3Te2(BrO3)2,0.0
Cu3TeO6,0.0
Cu3TePbO7,0.0
Cu3TePbO8,0.0
Cu3TeS3Cl,0.7672999999999996
Cu3WO6,0.00010000000000021103
Cu4(BiS2)5,0.0
Cu4(PO4)3,0.04789999999999983
Cu4(PO4)3,0.0
Cu41Sn11,0.0
Cu4Ag(AsO4)3,0.0
Cu4As,0.0
Cu4As2O9,0.0
Cu4As3PbO12,0.0
Cu4AsClO6,0.0
Cu4Au,0.0
Cu4Bi3Pb(SeO)4,0.0
Cu4Bi4S9,0.4383999999999997
Cu4Bi4S9,0.0
Cu4Bi5PbS11,0.0
Cu4Bi7S12,0.0
Cu4BiSe4I,0.009699999999999598
Cu4Br3Cl,0.1106000000000007
Cu4BrCl3,0.17870000000000008
Cu4GeS4,0.13370000000000015
Cu4H10SO12,0.0
Cu4H18C6S3I4,2.6151
Cu4H3C2N5,1.6966
Cu4H6SO10,0.17870000000000008
Cu4Mo5O17,0.31190000000000007
Cu4MoW3O16,0.0
Cu4NiGe2S7,0.0
Cu4O3,0.0
Cu4OF6,0.0
Cu4OF6,0.18480000000000008
Cu4P2O9,0.05810000000000004
Cu4P2O9,0.0
Cu4Pd,0.0
Cu4PtO5,0.0
Cu4SO10,0.0
Cu4Se3,0.0
Cu4Se3O10,0.16670000000000007
Cu4Se3O10,0.0
Cu4Si(GeO4)3,0.0
Cu4Si2NiS7,0.0
Cu4Si4Pb4C4ClO28,0.0
Cu4SiP8,1.2078000000000007
Cu4Sn15S32,0.0
Cu4Sn7S16,0.0
Cu4SnP10,0.2416999999999998
Cu4SnS4,0.00140000000000029
Cu4Te5(ClO3)4,0.0
Cu5(AsO5)2,0.13050000000000006
Cu5(AsO6)2,0.09120000000000017
Cu5(PO5)2,0.0
Cu5(PO6)2,0.0
Cu5(Si2O7)2,0.0
Cu5As2,0.0
Cu5As2(HO3)4,0.17010000000000014
Cu5Bi2(B2O7)2,0.0
Cu5Ge2,0.0
Cu5H14(SO9)2,0.0
Cu5H8(ClO5)2,0.0
Cu5O7,0.0
Cu5P3O13,0.0
Cu5Se2(ClO4)2,0.0
Cu5Se4(ClO6)2,0.0
Cu5SeCl5O4,0.06769999999999987
Cu5Si(SbO6)2,0.0
Cu5Si2S7,0.0
Cu5Si4(HO7)2,0.0
Cu5Sn(BO5)2,0.011600000000000499
Cu5Sn2Se7,0.0
Cu5Sn2Te7,0.0
Cu5Sn4,0.0
Cu64O,0.0
Cu6AgBi12PbS22,0.0
Cu6As4S9,0.0
Cu6AuN2,0.0
Cu6BiS6,0.0
Cu6BiSe6,0.0
Cu6GeSb,0.0
Cu6GeWS8,0.8154000000000003
Cu6Hg3(AsS3)4,0.2728999999999999
Cu6Hg3(SbS3)4,0.1860999999999997
Cu6Mo5O18,0.7167999999999997
Cu6OF11,0.0
Cu6PS5Br,0.6021999999999998
Cu6Pb2Se6N2O27,0.015600000000000058
Cu6PbO8,0.0
Cu6PbSe2Cl5O8,0.0
Cu6PdN2,0.0
Cu6SbAs,0.0
Cu6Sn5,0.0
Cu6SnGe,0.0
Cu6SnO8,0.0
Cu6SnWS8,0.02120000000000033
Cu6Te2Mo2H2Cl4O15,0.0
Cu7As6(PbO12)2,0.0
Cu7As6Se13,0.0
Cu7H9(SN)4,0.7182
Cu7Hg6,0.0
Cu7P12S9Cl7,1.5235999999999996
Cu7PS6,0.8837000000000002
Cu7PSe6,0.053899999999999615
Cu7PSe6,0.0
Cu7PSe6,0.4607999999999999
Cu7S2O21,0.0
Cu7S4,0.0
Cu7Se2(Cl3O4)2,0.0
Cu7Si2,0.0
Cu7Te2(SO10)2,0.0
Cu7Te4,0.0
Cu7Te6(O9F)2,0.0
Cu81Sn22,0.0
Cu8GeS6,0.6152999999999995
Cu8GeSe6,0.28779999999999983
Cu8GeSe6,0.3182999999999998
Cu8NO11,0.0
Cu8O,0.0
Cu8O7,0.0
Cu8SiS6,0.8296999999999999
Cu8SiSe6,0.41519999999999957
Cu9(PO4)8,0.0
Cu9As4,0.0
Cu9O13,0.0
Cu9P4(HO10)2,0.0
Cu9S5,0.0
Cu9Sb(AsS6)2,0.0
Cu9Se4(Cl3O7)2,0.0
Cu9Se5,0.0
Cu9Se8,0.0
CuAg(AsO4)2,0.0
CuAg10(PbO4)3,0.0
CuAg2(NO3)4,0.14479999999999998
CuAg2(PO3)4,0.39569999999999994
CuAg2P2O7,0.47230000000000016
CuAg3,0.0
CuAg3S2,0.24659999999999993
CuAg3S2,0.22850000000000037
CuAg4TeO6,0.0
CuAg5As3O11,0.009399999999999853
CuAg64Hg3(As4S15)4,1.2277
CuAg7As4ClO14,0.0
CuAgAs2H3O8,0.49550000000000005
CuAgF3,0.0
CuAgGeSe3,0.044700000000000184
CuAgO2,0.13439999999999985
CuAgO2,0.0
CuAgPO4,0.08789999999999987
CuAgPO4,0.0
CuAgS,0.6381999999999994
CuAgS,0.0
CuAgS,0.5674000000000001
CuAgS,0.2627000000000006
CuAgSe,0.24270000000000014
CuAgTe,0.0
CuAgTe2,0.0
CuAs,0.0
CuAs12P4S12Br,2.2876
CuAs12P4S12Cl,2.2937
CuAs2,0.0
CuAs2H3OF13,0.5946999999999998
CuAs2H6C2IO2,2.5975
CuAs2Pb6Cl7O6,2.2101
CuAs2Pb8Cl5O9,1.5363999999999995
CuAs2PbO7,0.0
CuAs2S4(O2F3)4,0.4678
CuAs4(H5O8)2,0.6034999999999999
CuAs4S3Cl,1.4116
CuAs7PS7Br,1.8224999999999998
CuAs7PS7Cl,1.8362
CuAsF7,0.0
CuAsH3O5,0.0
CuAsHO4,0.008899999999999908
CuAsO3,0.0
CuAsPb2SO9,0.6723999999999997
CuAsPbO4,1.8171000000000004
CuAsPbO5,0.40269999999999984
CuAsPbS3,0.7903000000000002
CuAsPtS2,0.0