formula,band_gap
Gd4Ge3O13,0.013700000000000045
Gd4InIr,0.0
Gd4MgRh,0.0
Gd4MgRu,0.0
Gd4Mo4O11,0.44320000000000004
Gd4Mo7O27,2.8488
Gd4Ni13C4,0.0
Gd4NiB13,0.0
Gd4P6H16O23,2.7504
Gd4PdO7,1.0998999999999999
Gd4Sb3,0.0
Gd4Si2Ni2Bi,0.0
Gd4Si2S3O7,1.1865999999999994
Gd4Si2Se3O7,1.0029000000000003
Gd4Ti(SeO)4,0.3285
Gd5(AlCo)2,0.0
Gd5(AsO6)2,0.0
Gd5(C2Cl)3,0.0
Gd5(RuO7)2,0.0
Gd5AgS8,1.1215000000000002
Gd5AgSe8,0.9084000000000003
Gd5B3O13,0.0
Gd5C2Cl9,0.5501999999999998
Gd5CuBi3,0.0
Gd5Ge4,0.0
Gd5P12Ru19,0.0
Gd5Pb3,0.0
Gd5Si2BO13,2.6556
Gd5Si4,0.0
Gd5Y3O12,3.0149
Gd6(Ga3Co)7,0.0
Gd6C3Cl5,0.0
Gd6CoBr10,0.0
Gd6CoCl10,0.0748000000000002
Gd6Mg23C,0.0
Gd6MgIn2O12,1.3417
Gd6MgWO12,2.0717000000000003
Gd6MgWO12,0.9026000000000001
Gd6Mo10O39,2.6567
Gd6S3(OF4)2,1.5213999999999999
Gd6Ta4Al43,0.0
Gd6WO12,2.5570999999999997
Gd6Zn23,0.0
Gd7Ti8O26,0.31230000000000047
Gd7Y5Nb4O28,2.4285
Gd8MgAlNi2,0.0
Gd8Rh5C12,0.0
Gd8Sb3O8,0.0
Gd8Zr7O26,2.0191999999999997
GdAg,0.0
GdAg(PO3)4,2.3239
GdAg(WO4)2,2.8117000000000005
GdAg2,0.0
GdAgGe,0.0
GdAgS2,1.0804
GdAgSe2,0.0
GdAgSe2,0.09709999999999974
GdAgSn2,0.0
GdAl,0.0
GdAl2,0.0
GdAl22O34,0.0
GdAl2Ni,0.0
GdAl3,0.0
GdAl3(BO3)4,2.8774
GdAl3(BO3)4,2.875
GdAl3(PbO4)2,2.9479
GdAl3Cu,0.0
GdAl3Ni2,0.0
GdAl3Pd2,0.0
GdAl4Ge2Au,0.0
GdAl4Ni,0.0
GdAl7Au3,0.0
GdAlCu,0.0
GdAlCu4,0.0
GdAlGa,0.0
GdAlGe,0.0
GdAlGe2O7,0.3146
GdAlNi,0.0
GdAlNi4,0.0
GdAlO3,1.8884999999999996
GdAlO3,3.2382
GdAlPd,0.0
GdAlRh,0.0
GdAlSi,0.0
GdAlZn,0.0
GdAlZnGe2,0.0
GdAs,0.0
GdAs2Au,0.0
GdAs2Pd3,0.0
GdAsO3,1.7600000000000002
GdAsO4,2.8049
GdAsO4,2.6976000000000004
GdAsO4,2.7523999999999997
GdAsO4,2.7853000000000003
GdAsO4,1.1583999999999999
GdAsO4,3.4222
GdAsS,0.0
GdAu,0.0
GdAu2,0.0
GdB(SO4)3,2.6591
GdB12,0.0
GdB2,0.0
GdB2HO5,3.1258
GdB2HO5,2.8110999999999997
GdB2Ir3,0.0
GdB2Os,0.0
GdB2Rh2C,0.0
GdB2Rh3,0.0
GdB2Ru3,0.0
GdB4,0.0
GdB4Mo,0.0
GdB4Os,0.0
GdB4Ru,0.0
GdB6,0.0
GdBN2,2.1031
GdBO3,3.1001000000000003
GdBO3,0.17430000000000012
GdBO3,2.2691
GdBPd3,0.0
GdBRh3,0.0
GdBe13,0.0
GdBe2B5O11,0.31020000000000003
GdBi,0.0
GdBi2BrO4,1.0231999999999997
GdBi2ClO4,0.8529
GdBi2IO4,1.3080999999999996
GdBi3,0.0
GdBiPd,0.0
GdBiPt,0.0
GdBr,0.0
GdBr3,2.2701000000000002
GdBrO,0.08119999999999994
GdC2,0.0
GdCBr,0.0
GdCO4,0.3854000000000001
GdCO4,0.0
GdCd,0.0
GdCd2,0.0
GdCd3,0.0
GdCdAg2,0.0
GdCdAu2,0.0
GdCdHg2,0.0
GdCdPd,0.0
GdCdPd2,0.0
GdCdPt2,0.0
GdCdRh2,0.0
GdCl3,2.0054
GdClO,3.0355
GdCo2B2C,0.0
GdCo2Ni2B,0.0
GdCo3B2,0.0
GdCo4B,0.0
GdCo4Si,0.0
GdCo5,0.0
GdCo5P3,0.0
GdCo9Si4,0.0
GdCoB4,0.0
GdCoC,0.0
GdCoC2,0.0
GdCoSi,0.0
GdCoSi3,0.0
GdCr3(BO3)4,0.5184000000000002
GdCrB4,0.25510000000000055
GdCrGeO5,2.4124999999999996
GdCrO3,2.1708
GdCrO4,0.7395
GdCrO4,0.0
GdCrO5,0.133
GdCrTeO6,2.6147
GdCu,0.0
GdCu(MoO4)2,0.08230000000000004
GdCu(WO4)2,0.14149999999999974
GdCu2,0.0
GdCu4Au,0.0
GdCu4Pd,0.0
GdCu5,0.0
GdCu5Se4,0.0
GdCu5Sn,0.0
GdCu5Te4,0.0
GdCu6,0.0
GdCuAs2,0.0
H6N2O,3.8792
H6N4O9,1.4636
H6N4O9,1.6163
H6N4O9,2.7873
H6OF4,7.3988000000000005
H6PbC10N8O7,0.0
H6PbC3S2IN,2.8489999999999998
H6PbCBr3N,2.1632000000000002
H6PbCBr3N,2.1129
H6PbCBr3N,2.0713000000000004
H6PbCBr3N,1.9688
H6PbCI3N,1.8147
H6PbCI3N,1.6778
H6PbCI3N,1.6393
H6PbCI3N,1.7574999999999998
H6PbCI3N,1.7627
H6PbCI3N,1.594
H6PbCNCl3,2.7965999999999998
H6PbCNCl3,2.7201
H6PbCNF3,4.1192
H6Pt(NO)4,2.5603
H6Pt(NO)4,2.1982
H6RuCI3N,0.0
H6RuN3Cl3O,1.7486000000000002
H6S(NO2)2,5.4258
H6S(NO2)2,5.2248
H6W,0.0
H7AuN4O15,1.9431
H7BrO3,3.8402
H7BrO3,3.7348999999999997
H7C2SBrN4,3.2492
H7C2SBrN4,3.1361
H7C2SIN4,2.8495
H7C2SN4Cl,3.0664
H7C2SN5,2.2168
H7C3N3O5,4.741899999999999
H7C3N6Cl,3.7087
H7CSN3O4,5.313599999999999
H7CSeN3O4,3.5161
H7ClO3,4.1696
H7ClO3,5.2273
H7ClO3,4.2299
H7ClO7,5.229
H7IN2,3.6926
H7N2F,4.8883
H7NF4,7.2658000000000005
H7NO6,3.5739
H7NO6,3.1283000000000003
H7NO6,4.6095
H7NO6,3.3899
H7NO6,3.3381
H7NO6,3.4969
H7NO6,3.2664
H7NO6,3.0810000000000004
H7NO6,3.3826
H7NO6,3.3895999999999997
H7NO6,1.6933
H7NO6,3.4913
H7S(NO2)2,5.2916
H7S2NO8,5.656499999999999
H7SIO10,2.3634
H7SIO10,2.5417
H7Se2NO6,4.2222
H8AuC2S2BrN4,3.1406
H8AuC2S2N4Cl,3.3228
H8C2(N2O)3,3.2268
H8C2BrN,4.7501
H8C2BrN,4.5092
H8C2I3N,1.9774000000000003
H8C2IN,4.3391
H8C2NCl,5.3908000000000005
H8C2NCl,5.1211
H8C2SeS2(BrN2)2,2.5463
H8C2SeS2(N2Cl)2,2.7415
H8C3(NO)3,3.0245
H8C3N2O,3.4116999999999997
H8C3N2O,4.5947
H8C3S2,3.9735
H8C3SN2,3.5357
H8C3SeN2,3.225
H8C5,4.9384
H8CN6,3.6266
H8CS(NO)4,5.1351
H8N2O,4.0837
H8N2O,4.3128
H8NF5,7.3786
H8PbC5S2IN,2.9545999999999997
H8Pd(NCl3)2,1.0972
H8Pd(NCl3)2,1.0278
H8PdC2NCl3,1.2942
H8PdS8(NO13)2,1.5619
H8Pt(N4O)2,2.3138
H8Pt(NCl3)2,1.7803
H8PtCN8,1.9094000000000002
H8PtN2(ClO)2,1.7313
H8PtN2(ClO)2,2.4328000000000003
H8PtO6,1.6046999999999998
H8PtO6,1.5662000000000003
H8PtO6,1.5297
H8PtO6,1.6174000000000002
H8PtO6,1.9379999999999997
H8PtO6,1.9425999999999999
H8RuC5N(ClO)3,3.3049999999999997
H8RuN3Cl5O,1.8003
H8S(NO2)2,4.9961
H8S(NO2)2,4.5172
H8S(NO2)2,4.9871
H8S(NO2)2,5.072699999999999
H8S(NO3)2,5.4104
H8S2N2O3,3.8252
H8S2N2O5,3.351
H8S5N2,2.1413
H8Se(NO2)2,3.6272
H8Se2N2O5,3.748
H8Se2N2O5,3.6460000000000004
H8W(S2N)2,1.9874
H8W3Se(NO6)2,3.1204
H8W3Se(NO6)2,3.1147
H9Au(ClO)4,1.4877
H9BrO4,3.6776
H9BrO4,3.7298
H9BrO4,3.9354
H9BrO4,4.2009
H9BrO4,4.0408
H9BrO4,4.17
H9BrO4,3.4936999999999996
H9BrO4,4.0822
H9BrO4,4.3502
H9BrO4,3.5222999999999995
H9C2N5Cl2,3.7509
H9C3IN6O,3.3812
H9C3N3O2,4.8956
H9C3SN4O3,3.0945
H9C3SN4O3,3.0802
H9C4NO4,3.1668000000000003
H9C4Se2N,3.5264
H9C6N11,3.6852
H9C8NO2,3.1803999999999997
H9CN5Cl2,4.5109
H9CN6Cl,4.6841
H9CN9,2.0452000000000004
H9CN9,4.5312
H9CSO7F3,5.8426
H9PtC3Br,3.6463
H9PtN2ClO2,2.6119
H9Rh(NCl)3,2.5806
HAuO2,1.2771
HAuO2,1.29
HAuO2,0.6675
HBr,4.486000000000001
HBr,4.681
HC,3.0918
HC,0.0
HC,3.5572000000000004
HC2,2.4010000000000002
HC2,0.0
HC2N3,2.4199
HC2N3,2.4981
HC2N3,2.4360999999999997
HC2N3,2.4005
HC2N3,2.5302000000000002
HC2N3,2.4008000000000003
HC2SClOF2,3.6948
HC3,0.0
HC4NCl2O3,2.9954
HC5N3(OF4)2,4.8499
HC6,0.0
HC9N10Cl7,3.6654999999999998
HCN,3.5894
HCNO,4.6665
HCNO,4.484500000000001
HCS(OF)3,6.936100000000001
HCSN,2.1391999999999998
HCl,5.8162
HCl,5.1812000000000005
HClO4,4.8339
HF,6.9686
HF,6.7187
HI,4.0739
HI3,1.2841999999999998
HI3O8,2.5131
HI3O8,2.4840999999999998
HIO3,3.1847000000000003
HIO3,3.0606
HIO4,1.5333999999999999
HIO4,1.4529999999999998
HN,2.8669
HN,4.1606
HN,4.3629999999999995
HNO3,3.8973999999999998
HNO3,3.8657000000000004
HOs3C10ClO10,2.4933
HPb2IO2,2.1818999999999997
HPb3ClO3,2.139
HPbBrO,3.1006
HPbClO,2.8977
HPbClO,3.3046
HPbIO,2.7209
HPd,0.0
HRh,0.0
HS2IO8,2.7664999999999997
HS2N(ClO2)2,4.0761
HS2N(O2F)2,5.8161
HS3N,3.0362
HS3N,2.7266
HS3N,2.8815
HS7N,2.0186
HS7N,2.8064999999999998
HS8N,2.6047000000000002
HS9N,2.3535
HW,0.0
HXe2F15,0.7923
HXeF7,2.9305999999999996
HXeNO3F2,2.3757
He,17.7675
He,17.6377
He,17.8914
He,16.586399999999998
HeSiO2,6.2606
HeSiO2,6.5469
HeSiO2,6.6052
HeSiO2,6.518
Hf,0.0
Hf(Al2Fe)4,0.0
Hf(AlFe)6,0.0
Hf(AlNi4)3,0.0
Hf(BH4)4,5.7195
Hf(ClO4)4,4.9222
Hf(CoGe)6,0.0
Hf(CoSi)2,0.0
Hf(CuP)2,0.0
Hf(FeGe)6,0.0
Hf(FeSi)2,0.0
Hf(GaFe)6,0.0
Hf(GaNi4)3,0.0
Hf(Mg4Al3)4,0.0
Hf(MnGe)6,0.0
Hf(MnSn)6,0.0
Hf(MoO4)2,2.953
Hf(MoO4)2,3.2774
Hf(Nb2B3)4,0.0
Hf(Ni2As)2,0.0
Hf(Ni2P)2,0.0
Hf(PS3)2,2.3179000000000003
Hf(PS3)2,2.1708
Hf(Se2Cl3)2,1.3131
Hf(SeCl6)2,2.7918000000000003
Hf(SiNi)2,0.0
Hf(Te2Cl3)2,1.2626
Hf(Te4Cl3)2,0.9085000000000001
Hf(TeCl)6,1.0245000000000002
Hf(TeCl6)2,0.0
Hf(TeSe3)2,0.4414
Hf(Ti2Se5)2,0.0
Hf(TlS)4,1.4675000000000002
Hf(TlSe)4,1.3377
Hf(TlTe)4,0.5049999999999999
Hf(VGa2)2,0.0
Hf(VH2)2,0.0
Hf(WO4)2,3.9497999999999998
Hf10(AlSi)3,0.0
Hf10(InSb)3,0.0
Hf10CuSn7,0.0
Hf10MnSb5,0.0
Hf10NiSb5,0.0
Hf10SiMo3,0.0
Hf10VSb5,0.0
Hf11Ga10,0.0
Hf14Cu51,0.0
Hf15Mo11As2,0.0
Hf15Mo11Se2,0.0
Hf2(Co7B2)3,0.0
Hf2(Ni7B2)3,0.0
Hf2(NiAs)3,0.0
Hf2(NiP)3,0.0
Hf2(SeS)3,0.5994000000000006
Hf2(TiGa)3,0.0
Hf20Co5P11,0.0
Hf20Si12B,0.0
Hf21Re25,0.0
Hf23Se25,0.0
Hf27(Si3P5)2,0.0
Hf27P16,0.0
Hf2Ag,0.0
Hf2Ag3F14,0.1563000000000001
Hf2Al,0.0
Hf2Al2SiS5O24,4.2199
Hf2Al3,0.0
Hf2Al3Ag,0.0
Hf2Al3Au,0.0
Hf2Al3C4,0.0
Hf2Al3Co,0.0
Hf2Al3Cu,0.0
Hf2Al3Ni,0.0
Hf2Al3Pd,0.0
Hf2Al3Zn,0.0
Hf2Al4C5,0.0
Hf2AlSi,0.0
Hf2As,0.0
Hf2Au,0.0
Hf2BIr6,0.0
Hf2Be17,0.0
Hf2Bi,0.0
Hf2Bi2O7,2.9843
Hf2CN,0.0
Hf2CS,0.0
Hf2Cd,0.0
Hf2Co,0.0
Hf2Co3Si4,0.0
Hf2Co4P3,0.0
Hf2Co7,0.0
Hf2CoCu,0.0
Hf2CoCuSn2,0.0
Hf2CoIr,0.0
Hf2CoOs,0.0
Hf2CoP,0.0
Hf2CoRe,0.0
Hf2CoTc,0.0
Hf2Cr3Si,0.0
Hf2Cr4Si5,0.0
Hf2Cu,0.0
Hf2CuGe4,0.0
Hf2CuIr,0.0
Hf2CuOs,0.0
Hf2CuRe,0.0
Hf2CuRh,0.0
Hf2CuSb3,0.03200000000000003
Hf2CuSi4,0.0
Hf2CuTc,0.0
Hf2Fe,0.0
Hf2Fe3Si,0.0
Hf2FeIr,0.0
Hf2FeOs,0.0
Hf2FeRh,0.0
Hf2FeTc,0.0
Hf2Ga,0.0
Hf2Ga2SiS5O24,2.9724000000000004
Hf2Ga3,0.0
Hf2Ga3Co,0.0
Hf2Ga3Cu,0.0
Hf2Ga3Ni,0.0
Hf2GaSb3,0.0
Hf2Ge,0.0
Hf2H2Pd,0.0
Hf2HC,0.0
Hf2Hg,0.0
Hf2In2SiS5O24,2.9231
Hf2In5,0.0
Hf2InC,0.0
Hf2InCu2,0.0
Hf2InNi2,0.0
Hf2InPd2,0.0
Hf2IrPd,0.0
Hf2IrRh,0.0
Hf2IrRu,0.0
Hf2Mn,0.0
Hf2MnCo,0.0
Hf2MnIr,0.0
Hf2MnOs,0.0
Hf2MnRh,0.0
Hf2MoIr,0.0
Hf2MoPt,0.0
Hf2MoRh,0.0
Hf2N,0.0
Hf2N2O,2.4934000000000003
Hf2N2O,2.0867999999999993
Hf2N2O,0.34830000000000005
Hf2N2O,1.9174000000000007
Hf2N2O,1.0665999999999993
Hf2N2O,2.436
Hf2N2O,1.9012000000000002
Hf2N2O,0.08630000000000049
Hf2N2O,2.3555
Hf2N2O,2.0236
Hf2N2O,1.7746000000000004
Hf2N2O,2.1159
Hf2N2O,2.0671
Hf2N2O,2.091
Hf2N2O,2.0252999999999997
Hf2N2O,2.029000000000001
Hf2N2O,1.6197999999999997
Hf2N2O,1.3567
Hf2N2O,2.0167
Hf2N2O,1.3828999999999994
Hf2N2O,2.0725999999999996
Hf2N2O,2.0317999999999996
Hf2N2O,2.0381
Hf2N2O,2.0459000000000005
Hf2N2O,1.9416000000000002
Hf2N2O,2.0254000000000003
Hf2N2O,2.0534
Hf2N2O,2.0681000000000003
Hf2N2O,2.1027000000000005
Hf2N2O,1.9989
Hf2N2O,2.0789
Hf2N2O,2.0569999999999995
Hf2N2O,2.0079000000000002
Hf2N2O,2.0806999999999993
Hf2N2O,2.1572000000000005
Hf2N2O,2.0039
Hf2N2O,2.0202
Hf2N2O,2.0281000000000002
Hf2N2O,1.9263000000000003
Hf2N2O,1.4915000000000003
Hf2N2O,1.9270000000000005
Hf2N2O,1.9925000000000006
Hf2N2O,1.0450999999999997
Hf2N2O,1.9967000000000006
Hf2N2O,2.0774999999999997
Hf2N2O,2.0431
Hf2N2O,1.9789999999999992
Hf2Nb2Si3(SO8)3,0.9424000000000001
Hf2Nb3Ge4,0.0
Hf2Ni,0.0
Hf2Ni2Sn,0.0
Hf2Ni7,0.0
Hf2NiIr,0.0
Hf2NiP,0.0
Hf2NiS4,0.0
Hf2Os,0.0
Hf2OsPd,0.0
Hf2OsRh,0.0
Hf2OsRu,0.0
Hf2P,0.0
Hf2P2O9,4.9045000000000005
Hf2P2O9,4.8809000000000005
Hf2P2SO12,5.0162
Hf2PbC,0.0
Hf2Pd,0.0
Hf2Pt3,0.0
Hf2ReIr,0.0
Hf2ReNi,0.0
Hf2ReOs,0.0
Hf2RePd,0.0
Hf2ReRh,0.0
Hf2ReRu,0.0
Hf2ReTc,0.0
Hf2Rh,0.0
Hf2RuRh,0.0
Hf2S,0.0
Hf2SN2,0.8851000000000004
Hf2SN2,2.0768000000000004
Hf2Sb2Pb4O13,1.7838000000000003
Hf2Sb3Pd,0.0
Hf2Sb3Te,0.0
Hf2SbP,0.0
Hf2Sc2SiS5O24,3.9145
Hf2Sc3Si4,0.0
Hf2ScGa3,0.0
Hf2Se,0.0
Hf2Se3,0.0
Hf2SeN2,0.6071
Hf2Si,0.0
Hf2Si(SO6)2,4.5267
Hf2Si4Mo3,0.0
Hf2Si4Ni3,0.0
Hf2Si4Ru3,0.0
Hf2SiAs3,0.0
Hf2SiH,0.0
Hf2SiMo3,0.0
Hf2SiNi3,0.0
Hf2SnC,0.0
Hf2Ta2Si3(SO8)3,1.5735999999999999
Hf2TcIr,0.0
Hf2TcNi,0.0
Hf2TcOs,0.0
Hf2TcPd,0.0
Hf2TcRh,0.0
Hf2TcRu,0.0
Hf2Te,0.0
Hf2Te3,0.0
Hf2TiNi3,0.0
Hf2Tl,0.0
Hf2TlC,0.0
Hf2V3Ge,0.0
Hf2V3Ru,0.0
Hf2Zn,0.0
Hf2ZnRe,0.0
Hf2ZnTc,0.0
Hf2Zr8Ta8Ti4Nb5B54,0.0
Hf2Zr9Ta6Ti5Nb5B54,0.0
Hf3(Al2C3)2,0.0
Hf3(Bi5Cl9)2,0.0
Hf3(CrGa2)2,0.0
Hf3(CrGa3)2,0.0
Hf3(Cu2Ge)2,0.0
Hf3(Cu2Si)2,0.0
Hf3(CuSi)4,0.0
Hf3(Ga2Cu)2,0.0
Hf3(Mn2Si3)2,0.0
Hf3(MnGa3)2,0.0
Hf3(NbGe2)2,0.0
Hf3(Ni10B3)2,0.0
Hf3(NiGe)4,0.0
Hf3(VGa2)2,0.0
Hf3(VGa3)2,0.0
Hf3Ag,0.0
Hf3AgHg3F20,0.7608999999999999
Hf3Al,0.0
Hf3Al2,0.0
Hf3Al3C5,0.0
Hf3AlAu2,0.0
Hf3AlGe5,0.0
Hf3AlMo8,0.0
Hf3AlN,0.0
Hf3As,0.0
Hf3As2,0.0
Hf3Au,0.0
Hf3B2Ir5,0.0
Hf3Be,0.0
Hf3Bi,0.0
Hf3Cd3AgF20,0.0
Hf3Co2Si3,0.0
Hf3CoS6,0.0
Hf3Cu8,0.0
Hf3Fe2Si3,0.0
Hf3Ga,0.0
Hf3Ga3Pd2Pt,0.0
Hf3Ge,0.0
Hf3Ge2,0.0
Hf3GeO8,4.55
Hf3Hg,0.0
Hf3In4,0.0
Hf3Mg,0.047099999999999476
Hf3Mg,0.0
Hf3MgP2(SO6)4,4.1919
Hf3MgSiS5O24,3.2251000000000003
Hf3N2,0.0
Hf3N2O3,3.1036
Hf3N2O3,3.2891000000000004
Hf3N2O3,3.2885999999999997
Hf3N2O3,2.9849
Hf3N4,1.0259
Hf3N4,1.0917000000000003
Hf3N4,0.9216000000000006
Hf3N4,1.0064000000000002
Hf3Nb2Ga3,0.0
Hf3Ni3Sb4,0.7419999999999991
Hf3Ni7,0.0
Hf3NiSb7,0.0
Hf3P,0.0
Hf3P2,0.0
Hf3P3Pd4,0.0
Hf3Pb,0.0
Hf3Pt,0.0
Hf3Rh5,0.0
Hf3Sb,0.0
Hf3Sb7Pd,0.0
Hf3Sc,0.0
Hf3Sc4O12,4.1098
Hf3Sc4O12,3.9078
Hf3Sc4O12,4.190799999999999
Hf3ScGa12,0.0
Hf3ScSi4,0.0
Hf3Si2,0.0
Hf3Si3Ni2,0.0
Hf3Sn,0.0
Hf3SnO8,3.5875000000000004
Hf3Ta,0.0
Hf3TaCo8,0.0
Hf3TaFe8,0.0
Hf3Te2,0.0
Hf3TePb4O13,1.7083
Hf3Th,0.0
Hf3Ti2(PbO3)5,2.6731999999999996
Hf3Ti2Ga3,0.0
Hf3TiTe20,0.0
Hf3TiV8,0.0
Hf3Tl,0.0
Hf3Tl10Mo12PbO48,2.8317
Hf3Tl2(CuSe4)2,0.5025000000000004
Hf3Zn3C,0.0
Hf3Zn3N,0.0
Hf3ZnN,0.0
Hf3ZnP2(SO6)4,4.1573
Hf3ZnSiS5O24,3.2822
Hf4(Ru4C)3,0.0
Hf4AgPd,0.0
Hf4Al3,0.0
Hf4AlSi,0.0
Hf4C3N,0.0
Hf4CN3,0.0
Hf4Co4Ge7,0.0
Hf4Co4Si7,0.0
Hf4Co7Ge6,0.0
Hf4CoP,0.0
Hf4CuP,0.0
Hf4CuSi3,0.0
Hf4CuSi4,0.0
Hf4Fe4Ge7,0.0
Hf4FeP,0.0
Hf4FeS8,0.0
Hf4Ga5Ni3,0.0
Hf4GeSb7,0.0
Hf4N3,0.0
Hf4NbGe4,0.0
Hf4Ni3As8,0.0
Hf4NiP,0.0
Hf4NiRh,0.0
Hf4Si7Ni4,0.0
Hf4Ti(PbO3)5,2.8592000000000004
Hf4UC5,0.0
Hf4USi4,0.0
Hf4ZnGa11,0.0
Hf5(In2Rh)2,0.0
Hf54Os17,0.0
Hf5Al3,0.0
Hf5Al3C,0.0
Hf5Al3N,0.0
Hf5As3,0.0
Hf5CoAs3,0.0
Hf5CoP3,0.0
Hf5CoSn3,0.0
Hf5CuPb3,0.0
Hf5CuSb3,0.0
Hf5CuSn3,0.0
Hf5FeSb2,0.0
Hf5FeTe3,0.0
Hf5Ga3,0.0
Hf5GaSn3,0.0
Hf5Ge3,0.0
Hf5Ge4,0.0
Hf5Ir3,0.0
Hf5MnSb2,0.0
Hf5N5O2,0.0
Hf5NiSb3,0.0
Hf5NiSn3,0.0
Hf5P7Pd9,0.0
Hf5Pb,0.0
Hf5Re24,0.0
Hf5Sb3,0.0
Hf5Sb9,0.0
Hf5Sc,0.0
Hf5Sc5Ge6,0.0
Hf5Sc5Si6,0.0
Hf5ScSi4,0.0
Hf5Si3,0.0
Hf5Si3N,0.0
Hf5Si4,0.0
Hf5Sn3,0.0
Hf5Sn4,0.0
Hf5Te4,0.0
Hf5ZnSb3,0.0
Hf5Zr5Ga6,0.0
Hf5ZrTe8,0.0
Hf6Al16Co7,0.0
Hf6Al16Ir7,0.0
Hf6Al16Os7,0.0
Hf6Al16Pd7,0.0
Hf6Al16Pt7,0.0
Hf6Al16Rh7,0.0
Hf6Al2Co,0.0
Hf6Al2Fe,0.0
Hf6Al2Ni,0.0
Hf6Al2Pt,0.0
Hf6BCl14,0.01609999999999978
Hf6Be15Co8,0.0
Hf6Be15Cu8,0.0
Hf6Be15Ni8,0.0
Hf6Be15Pd8,0.0
Hf6CCl14,1.3758
Hf6Co16Ge7,0.0
Hf6Co16Si7,0.0
Hf6Co23,0.0
Hf6CoBi2,0.0
Hf6CoSb2,0.0
Hf6Cr5Si7,0.0
Hf6Fe16Si7,0.0
Hf6FeSb2,0.0
Hf6Ga16Co7,0.0
Hf6Ga16Ni7,0.0
Hf6Ga16Pd7,0.0
Hf6Ga16Rh7,0.0
Hf6Ga2Co,0.0
Hf6Ga2Fe,0.0
Hf6Ni16Ge7,0.0
Hf6NiBi2,0.0
Hf6NiSb2,0.0
Hf6Si7Ni16,0.0
Hf6Zn16Cu7,0.0
Hf6Zn6N,0.0
Hf6Zr4Ta8Ti3(NbB9)6,0.0
Hf6Zr8Ta3Ti2(Nb4B27)2,0.0
Hf6Zr8Ta5Ti5(NbB18)3,0.0
Hf7As4,0.0
Hf7Au10,0.0
Hf7Cu10,0.0
Hf7Ni10,0.0
Hf7P4,0.0
Hf7Tl18Pb2S25,1.4819
Hf7Zr6Ta4Ti3Nb7B54,0.0
Hf8FeTe6,0.0
Hf8GeMo5,0.0
Hf8MnTe6,0.0
Hf8Mo5S,0.0
Hf8Ni21,0.0
Hf8Ni4N,0.0
Hf9AsW4,0.0
Hf9B2Mo3,0.0
Hf9B2W3,0.0
Hf9BMo4,0.0
Hf9BOs4,0.0
Hf9BW4,0.0
Hf9CoMo4,0.0
Hf9CoRe4,0.0
Hf9CoW4,0.0
Hf9FeMo4,0.0
Hf9FeRe4,0.0
Hf9FeW4,0.0
Hf9GeMo4,0.0
Hf9Mo4As,0.0
Hf9Mo4P,0.0
Hf9Mo4S,0.0
Hf9Mo4Se,0.0
Hf9Ni11,0.0
Hf9NiMo4,0.0
Hf9NiW4,0.0
Hf9PW4,0.0
Hf9Re4As,0.0
Hf9Re4B,0.0
Hf9Re4Ge,0.0
Hf9Re4Ni,0.0
Hf9Re4O3,0.0
Hf9Re4P,0.0
Hf9Re4S,0.0
Hf9Re4Se,0.0
Hf9Re4Si,0.0
Hf9SiMo4,0.0
Hf9V4S,0.0
Hf9W4S,0.0
Hf9W4Se,0.0
HfAg,0.0
HfAg2S3,1.1134999999999997
HfAl,0.0
HfAl2,0.0
HfAl2O5,4.9993
HfAl2Zn,0.0
HfAl3,0.0
HfAl5Ni2,0.0
HfAlAu2,0.0
HfAlCo,0.0
HfAlCo2,0.0
HfAlCr,0.0
HfAlCu,0.0
HfAlCu2,0.0
HfAlFe,0.0
HfAlFe2,0.0
HfAlIr,0.0
HfAlIr2,0.0
HfAlMo,0.0
HfAlNi,0.0
HfAlNi2,0.0
HfAlP(SO6)2,4.9456
HfAlPd,0.0
HfAlPd2,0.0
HfAlPt,0.0
HfAlPt2,0.0
HfAlRh,0.0
HfAlRh2,0.0
HfAlRu2,0.0
HfAlZn,0.0
HfAs,0.0
HfAs2,0.0
HfAsOs,0.0
HfAsPd,0.0
HfAsRu,0.0
HfAu,0.0
HfAu2,0.0
HfAu3,0.0
HfAu9,0.0
HfB12,0.0
HfB2,0.0
HfB2O5,4.4146
HfB4Ir3,0.0
HfBRh3,0.0
HfBe,0.0
HfBe13,0.0
HfBe2,0.0
HfBe5,0.0
HfBeIr2,0.0
HfBeRh2,0.0
HfBeSi,0.0
HfBi,0.0
HfBi2,0.0
HfBiO4,1.073
HfBr3,0.0
HfBr4,4.2933
HfBrN,1.9204999999999997
HfBrN,2.1298000000000004
HfC,0.0
HfCd,0.0
HfCdCu2,0.0
HfCdO3,2.3244
HfCdRh2,0.0
HfCl4,4.1668
HfCo,0.0
HfCo2,0.0
HfCo2Sn,0.0
HfCo3,0.0
HfCo3B2,0.0
HfCoAs,0.0
HfCoGe,0.0
HfCoO3,2.4865
HfCoP,0.0
HfCoSi,0.0
HfCoSn,0.0
HfCr2,0.0
HfCrAgS4,0.0
HfCrAgS4,0.6166999999999998
HfCrAgS4,0.9685999999999995
HfCrAgS4,0.3371999999999997
HfCrAgS4,0.7582999999999998
HfCrAgS4,0.7591000000000001
HfCrAgS4,0.9163999999999999
HfCrAgS4,0.9302999999999995
HfCrAgS4,0.8528999999999995
HfCrAgS4,0.6033
HfCrAgS4,0.7444000000000006
HfCrCuS4,0.0
HfCrCuS4,0.5950999999999995
HfCrCuS4,0.2004999999999999
HfCrCuS4,0.2751000000000001
HfCrCuS4,0.3357000000000001
HfCrCuS4,1.1564999999999994
HfCrCuS4,0.2854000000000001
HfCrCuS4,0.42320000000000046
HfCrCuS4,0.5966000000000005
HfCrCuS4,0.4004000000000003
HfCrCuS4,0.32089999999999996
HfCrCuSe4,0.07929999999999993
HfCrGa2,0.0
HfCrGe2,0.0
HfCrO3,1.5871000000000004
HfCrO4,1.1371000000000002
HfCrO4,0.5763000000000003
HfCrP,0.0
HfCrS4,0.0
HfCrSi,0.0
HfCrSi2,0.0
HfCu2Te3,0.0517000000000003
HfCu3,0.0
HfCuGe,0.0
HfCuGe2,0.0
HfCuGeAs,0.0
HfCuSi,0.0
HfCuSi2,0.0
HfCuSiAs,0.0
HfCuSn,0.0
HfF4,5.4058
HfFe2,0.0
HfFe2Sn,0.02099999999999902
HfFeAs,0.0
HfFeCl6,0.4575
HfFeF6,0.0
HfFeGe,0.0
HfFeGe2,0.0
HfFeO3,1.8282000000000003
HfFeO3,2.9099000000000004
HfFeP,0.0
HfFeSb,0.0
HfFeSi,0.0
HfFeSi2,0.0
HfGa,0.0
HfGa2,0.0
HfGa2Ag,0.0
HfGa2Co,0.0
HfGa2Ni,0.0
HfGa3,0.0
HfGa4Co,0.0
HfGa5Co,0.0
HfGa5Ni,0.0
HfGaAu,0.0
HfGaCo,0.0
HfGaCo2,0.0
HfGaCu,0.0
HfGaIr2,0.0
HfGaNi,0.0
HfGaNi2,0.0
HfGaP(SO6)2,3.6278
HfGaPd,0.0
HfGaPt,0.0
HfGaRh,0.0
HfGaRh2,0.0
HfGaRu2,0.0
HfGe2,0.0
HfGe2Rh,0.0
HfGe2Ru,0.0
HfGeIr,0.0
HfGeMo,0.0
HfGeO4,4.161099999999999
HfGeOs,0.0
HfGeP2SO12,2.3954999999999997
HfGePd,0.0
HfGePt,0.0
HfGeRh,0.0
HfGeRu,0.0
HfGeRu2,0.0
HfGeS,0.0
HfGeSe,0.0
HfGeTe,0.0
HfGeTe4,0.3307000000000002
HfH14C4NOF5,6.6662
HfH2,0.0
HfH3,0.0
HfH6O3F4,6.1892
HfH8(SO6)2,4.6357
HfHg3(SeCl3)2,2.5501
HfHg4(AsCl3)2,1.3812000000000002
HfHg4(PCl3)2,2.0914
HfI3,0.0
HfI4,3.2851999999999997
HfI4,2.3487
HfIN,0.9778000000000002
HfInAu2,0.0
HfInCo2,0.0
HfInCu2,0.0
HfInNi2,0.0
HfInP(SO6)2,3.8905
HfInPd2,0.0
HfInPt2,0.0
HfInRh2,0.0
HfIr,0.0
HfIr3,0.0
HfMg,0.0
HfMg(SO4)3,4.8006
HfMg149,0.04809999999999981
HfMg14Al,0.0
HfMg14Bi,0.0
HfMg14Cd,0.0
HfMg14Co,0.0
HfMg14CoO16,0.0
HfMg14Cr,0.0
HfMg14CrO16,0.0
HfMg14Cu,0.0
HfMg14CuO16,0.0
HfMg14Fe,0.0
HfMg14FeO16,0.0
Fe8SiO12,0.0
Fe9(PO4)8,1.3746000000000003
Fe9B4Ir3,0.0
Fe9B4Rh3,0.0
Fe9BP2,0.0
Fe9Co7,0.0
Fe9Cu3O16,0.0
Fe9Cu9S16,0.0
Fe9O10,1.2168000000000005
Fe9PO12,0.0
Fe9Se8,0.0
Fe9Si6O25,1.2425000000000002
FeAg(MoO4)2,1.4844
FeAg(SO4)2,1.6382999999999996
FeAg(SeO3)2,1.6046
FeAg2Sn3S8,0.8741000000000003
FeAg2SnS4,0.0
FeAg3F6,0.0
FeAg3F6,1.7972000000000001
FeAgBr4,0.0
FeAgO2,0.5564
FeAgO2,1.158
FeAgO2,1.1484999999999999
FeAgP2O7,1.8448
FeAgS2,0.0
FeAgTe2,0.0
FeAs,0.0
FeAs(H2O3)2,0.7982000000000001
FeAs2,0.2829999999999995
FeAs2H18(C2I)3,0.08860000000000001
FeAs2H3OF13,2.5408999999999997
FeAs2O7,0.0
FeAs2Pb2O9,0.0
FeAs2PbO8,0.0
FeAs2S4(O2F3)4,3.2335
FeAs4F18,4.2095
FeAsO4,1.6305
FeAsO4,1.5579999999999998
FeAsRh,0.0
FeAsS,0.7373000000000003
FeAsSe,0.4485999999999999
FeAu3,0.0
FeAuO2,0.4779
FeB,0.0
FeB10(H13O4)2,4.3224
FeB12(HO6)4,0.016599999999999948
FeB18H32(C4S)2,2.0301
FeB2,0.5153999999999996
FeB2P2(HO4)3,2.3365
FeB4,0.0
FeB4O7,2.6797999999999997
FeBO3,1.5175999999999998
FeBO3,0.6726999999999999
FeBO3,1.4815999999999998
FeBO3,0.2790999999999999
FeBP(HO3)2,4.0812
FeBP(HO3)2,4.2042
FeBP2H5NO9,2.8005
FeBPbO4,2.0864000000000003
FeBW,0.0
FeBi(SeO3)3,2.6249000000000002
FeBi25O39,2.1319
FeBi25O39,2.2279
FeBi2PO8,0.0
FeBi2Se2Cl3O7,1.3914
FeBi3(MoO6)2,2.5911
FeBi4S7,0.35379999999999967
FeBi6P2(O7F)2,2.1024999999999996
FeBiO3,1.4197999999999995
FeBiO3,1.6433
FeBiO3,1.7783000000000007
FeBiO3,1.6328999999999994
FeBiO3,0.0
FeBiO3,1.5419999999999998
FeBiSbS4,0.1598000000000006
FeBr2,0.0
FeBr3,0.0
FeCO3,0.0
FeCSO7,0.8654
FeCl2,0.03569999999999984
FeCl2,0.0
FeCl3,0.042100000000000026
FeCl3,0.0
FeCl3,0.43079999999999996
FeCl3,0.6636
FeCl4,0.2505
FeClO,1.9133
FeCo,0.0
FeCo(BiO3)2,0.5354999999999999
FeCo(NiS2)4,0.0
FeCo(PO4)2,0.12109999999999999
FeCo(PO4)2,0.2771000000000001
FeCo(RhS2)4,0.0
FeCo16NiS16,0.0
FeCo2B,0.0
FeCo2Ge,0.0
FeCo2Si,0.0
FeCo3,0.0
FeCo3(PO4)4,0.5962999999999998
FeCo3O8,0.19440000000000002
FeCo3O8,0.0
FeCo3O8,0.2459
FeCo3S8,0.0
FeCo5N4,0.0
FeCo5O12,0.0
FeCo9O20,0.3016000000000001
FeCoAs,0.0
FeCoAs4,0.0
FeCoB,0.0
FeCoB2,0.0
FeCoBO4,0.2672000000000003
FeCoBi2(AsO6)2,0.0
FeCoGe,0.0
FeCoH18(CN2)6,0.0
FeCoH18(NCl)6,0.8114
FeCoO4,0.0
FeCoP,0.0
FeCoPO4F,2.4339
FeCoPO5,0.12220000000000031
FeCoPt2,0.0
FeCoS4,0.0
FeCoSb4,0.0
FeCoSi,0.0
FeCoSi2,0.0
FeCoSn,0.0
FeCoSn2,0.0
FeCoSn4,0.0
FeCu,0.0
FeCu(PO4)2,0.0
FeCu(RhS2)4,0.0
FeCu(RhSe2)4,0.0
FeCu2BO5,0.0
FeCu2BO5,0.050899999999999945
FeCu2GeS4,0.0
FeCu2GeSe4,0.0
FeCu2H21(O5F4)2,0.0
FeCu2SbO6,0.3570000000000002
FeCu2SiS4,0.021300000000000097
FeCu2SiSe4,0.0
FeCu2Sn3S8,0.6529999999999996
FeCu2SnS4,0.0
FeCu2SnSe4,0.0
FeCu3,0.0