formula,band_gap
Ca6Al43W4,0.0
Ca6Al6Si3(HO12)2,0.01159999999999961
Ca6Al6Si3(HO12)2,0.4173000000000002
Ca6Al7ClO16,3.8007
Ca6Al7O16,0.0
Ca6Al7O16F,3.8751000000000007
Ca6AlCr3(SiO4)6,3.4967000000000006
Ca6Br2N3Cl,2.3922000000000003
Ca6Cd32Cu,0.0
Ca6Co3RhO12,0.1344000000000003
Ca6Cr2HN6,0.0
Ca6Cu2Sn7,0.0
Ca6Fe(CoO4)3,0.20650000000000013
Ca6FeN5,0.0
Ca6Ga6Si3(HO12)2,0.0
Ca6GaN5,0.8130000000000002
Ca6Ge2O,0.2814000000000001
Ca6Ge7Au15,0.0
Ca6Hf19O44,4.130800000000001
Ca6HfO8,4.1479
Ca6In2NF,0.0
Ca6La14Mg7Ti13O60,1.1974
Ca6La2Mn7CrO24,0.0
Ca6La4Ti5Cr5O30,0.32889999999999997
Ca6Mg2Co(AsO5)6,0.47629999999999995
Ca6Mg2ZnP6(H2O5)6,5.033
Ca6Mg5Al2Si11O36,4.8512
Ca6Mn3Al(SiO6)4,0.0
Ca6Mn3Al2O15,0.24149999999999983
Ca6MnAl11,0.0
Ca6MnBe4Si6HO24,0.0
Ca6MnN5,0.7323999999999997
Ca6Nd6Mn11CrO36,0.0
Ca6Nd6ScMn11O36,0.0
Ca6P19Rh30,0.0
Ca6Pb2SeN,0.0
Ca6Pr6Mn11CrO36,0.0
Ca6Sc(CoO4)3,0.9348000000000001
Ca6Si2H6O13,3.4957
Ca6Si3H2O13,4.47
Ca6Si3O13,0.25459999999999994
Ca6Si6H2O19,4.4792
Ca6Si6O19,0.08679999999999999
Ca6Si6O19,0.7095
Ca6Si6O19,0.0
Ca6Sn2NF,0.13229999999999986
Ca6Sn2NO,0.0
Ca6Te3N2,1.8432999999999993
Ca6Te5N2O21,2.715
Ca6Ti5AlSi6O29F,2.4854000000000003
Ca6TiAl5Si6(O5F)5,2.8637999999999995
Ca6V3Fe7O24,1.9400999999999997
Ca7(B7Rh10)2,0.0
Ca7(H6Cl)2,3.6946
Ca7(Mg3Si7)2,0.0
Ca7(Si2O5)8,0.7426
Ca7(VN3)3,0.2947999999999995
Ca7(ZnN3)2,0.9521000000000002
Ca7Al3Si10N21,0.0
Ca7Au3,0.0
Ca7CoN6,0.05880000000000063
Ca7CrN6,0.0
Ca7Cu(PtO6)2,0.5033999999999996
Ca7Cu17O24,0.0
Ca7Ge6,0.0
Ca7GeN6,1.697
Ca7HfN6,1.1909999999999998
Ca7InN4,0.0
Ca7IrN6,0.0
Ca7La3Ti5Cr5O30,0.0
Ca7Mg(Co2O5)4,0.005399999999999849
Ca7Mg(CoO3)8,0.0
Ca7Mg2N6,1.1673000000000004
Ca7MgCo7CuO20,0.0
Ca7MgCo7CuO24,0.0
Ca7MgFeCo7O20,0.0
Ca7MgFeCo7O24,0.0
Ca7MgMn7FeO20,0.0
Ca7MgMn7FeO24,0.0
Ca7MgMn8O20,0.0
Ca7MgMn8O24,0.0
Ca7MgTiMn7O20,0.0
Ca7MgTiMn7O24,0.0
Ca7MnN6,0.0
Ca7NbSi2N9,1.9855
Ca7NbSi4O17F,3.6724
Ca7Ni(IrO6)2,0.08660000000000068
Ca7Ni4Sn13,0.0
Ca7OsN6,0.11580000000000013
Ca7PbN6,0.9102999999999999
Ca7PtN6,0.08610000000000007
Ca7ReN6,0.0
Ca7RhN6,0.0
Ca7RuN6,0.25210000000000043
Ca7Si6CO23,0.0
Ca7Si6H4CO23,4.581099999999999
Ca7SiN6,1.8302999999999998
Ca7Sn3S13,2.1028999999999995
Ca7Sn6,0.0
Ca7SnN6,1.149
Ca7TiN6,1.3186
Ca7Tl3N2,0.0
Ca7TlN4,0.0
Ca7VN6,0.0
Ca7ZrN6,1.1936999999999998
Ca8(DySe4)3,0.0
Ca8(MnN3)3,0.0
Ca8Al11Fe(Si3O13)4,0.0
Ca8Al3,0.0
Ca8Al3(FeO4)5,1.8679999999999994
Ca8Al9Fe3Si12(HO13)4,2.5987999999999998
Ca8Al9Fe3Si12(HO13)4,2.6141
Ca8Be5Al3(Si9O28)2,0.019600000000000062
Ca8Be5Al3Si18(HO14)4,0.40000000000000013
Ca8Cr(PO4)7,0.0035000000000000586
Ca8Fe3N8,0.0
Ca8Fe5(WO8)3,0.08910000000000018
Ca8H3N4,0.24140000000000006
Ca8H3N4,0.47730000000000006
Ca8In3,0.0
Ca8La2Ti5Cr5O30,0.0
Ca8Mg5Fe2(SiO3)16,3.5485999999999995
Ca8Mn3N8,0.0
Ca8Mn6Al2O21,0.12580000000000036
Ca8Mn6Al2O23,0.24180000000000001
Ca8Mn6Al2O23,0.0
Ca8Mn6Cr2O21,0.0015000000000000568
Ca8Mn6Cr2O21,0.0
Ca8Mn6Cr2O23,0.0
Ca8Mn7CrO20,0.25059999999999993
Ca8Mn7CrO20,0.0
Ca8Mn7CrO21,0.0
Ca8Mn7CrO22,0.0
Ca8Mn7CrO23,0.0
Ca8Mn7CrO24,0.0
Ca8Mn7CrO24,0.28839999999999977
Ca8Mn8O21,0.0
Ca8Mn8O23,0.0
Ca8Mo7O20,1.1457999999999995
Ca8P6H12O29,4.9093
Ca8ScFe7(SiO3)20,1.1465999999999998
Ca8Si4(O5F)3,0.15680000000000005
Ca8Si5O18,4.545
Ca8Ti2Mn6O21,0.0
Ca8Ti2Mn6O21,0.04090000000000016
Ca8Ti2Mn6O23,0.0
Ca8Ti3Mn5O20,0.8669999999999995
Ca8Ti3Mn5O20,0.4654999999999996
Ca8Ti3Mn5O21,0.2751999999999999
Ca8Ti3Mn5O21,0.30799999999999983
Ca8Ti3Mn5O22,0.0
Ca8Ti3Mn5O22,0.13919999999999977
Ca8Ti3Mn5O23,0.0
Ca8Ti3Mn5O24,0.5830000000000002
Ca8Ti3Mn5O24,0.0
Ca8TiMn7O20,0.10530000000000017
Ca8TiMn7O20,0.0
Ca8TiMn7O21,0.0
Ca8TiMn7O22,0.0
Ca8TiMn7O23,0.0
Ca8TiMn7O24,0.0
Ca8TiMn7O24,0.40879999999999983
Ca8V7ZnBiO28,3.2386
Ca8Zn3Co(Si2O7)4,3.1805999999999996
Ca8Zn4Si3Ge5O28,3.3116
Ca8ZnCo3(Si2O7)4,3.1614999999999998
Ca9(FeN4)2,0.0
Ca9(MnN4)2,0.0
Ca9(WO3)20,0.3628
Ca9B2(CCl2)4,1.3725999999999998
Ca9Cd4Bi9,0.0
Ca9Co(PO4)7,0.7423
Ca9Cr(PO4)7,2.5002
Ca9Fe(PO4)7,1.7533999999999998
Ca9In(PO4)7,4.0941
Ca9La5Br33,2.7264999999999997
Ca9La5Cl33,3.4245
Ca9LaMn10O30,0.0
Ca9LaTi10O30,0.0
Ca9LaTi4Mn6O30,0.0
Ca9LaTi6Mn4O30,0.0
Ca9LaTi8Mn2O30,0.0
Ca9LaTi9MnO30,0.0
Ca9Mg(PO4)7,5.2129
Ca9Mn(PO4)7,5.6204
Ca9Mn(PO4)7,5.012499999999999
Ca9Mn4Bi9,0.0
Ca9Nb2Ga10(SiO7)6,0.04499999999999993
Ca9Pr11Mn20O60,0.0
Ca9PrF20,0.0
Ca9Si4O17F,0.7206000000000001
Ca9Y3(CoO6)4,0.0
Ca9Zn4Bi9,0.0
Ca9Zn4Sb9,0.0
CaAc3,0.0
CaAcAu2,0.0
CaAcGa2,0.0
CaAcHg2,0.0
CaAcIn2,0.0
CaAcMg2,0.0
CaAcRh2,0.0
CaAcTl2,0.0
CaAcZn2,0.0
CaAg,0.0
CaAg2,0.0
CaAg2Sn,0.0
CaAg3,0.0
CaAg3P3O13,0.0
CaAg4(PO3)4,0.0
CaAg4(RuO3)4,0.0
CaAgAs,0.02069999999999972
CaAgAsO4,1.3571999999999997
CaAgAsO5,0.5504
CaAgBi,0.0
CaAgBiO5,0.9933
CaAgF5,0.0
CaAgGe,0.0
CaAgHg2,0.0
CaAgO2,0.0
CaAgP,0.007000000000000561
CaAgPb,0.0
CaAgSb,0.0
CaAgSn,0.0
CaAl12O19,4.3450999999999995
CaAl12O19,4.319500000000001
CaAl12Si4O27,5.236199999999999
CaAl2,0.0
CaAl2(Si3O8)2,4.5347
CaAl2(Si8O19)2,0.6122000000000001
CaAl2(SiO4)2,4.729699999999999
CaAl2(SiO4)2,4.8989
CaAl2(SiO4)2,4.7227
CaAl2(SiO4)2,4.8122
CaAl2B2O7,4.8228
CaAl2F10,0.5430999999999999
CaAl2F8,7.222700000000001
CaAl2H12(CO7)2,5.0344
CaAl2H16N9,1.0288
CaAl2H4Pb2(O2F3)2,0.0
CaAl2H4Pb2(O2F3)2,0.7255000000000003
CaAl2H4Pb2(O2F3)2,1.1089000000000002
CaAl2H4Pb2(O2F3)2,0.1660999999999997
CaAl2H4Pb2(O2F3)2,0.7031000000000001
CaAl2O4,4.8499
CaAl2O4,4.3909
CaAl2O4,4.4681
CaAl2O4,4.9805
CaAl2O4,4.190300000000001
CaAl2Si(HO2)4,4.655200000000001
CaAl2Si2(H2O5)2,4.169700000000001
CaAl2Si2(H2O5)2,5.0625
CaAl2Si2(H2O5)2,5.3279
CaAl2Si2(H2O5)2,4.3611
CaAl2Si2(H2O5)2,5.1385000000000005
CaAl2Si3(HO3)4,4.895700000000001
CaAl2Si3H6O13,4.8424
CaAl2Si3H6O13,4.733499999999999
CaAl2Si3H6O13,5.2357000000000005
CaAl2Si3O10,4.541499999999999
CaAl2Si6H10O21,5.1377999999999995
CaAl2SiO6,4.596000000000001
CaAl2SiO6,4.549800000000001
CaAl2SiO6,4.619100000000001
CaAl2SiO6,4.291799999999999
CaAl2SiO6,4.605699999999999
CaAl2SiO6,4.536299999999999
CaAl3Au,0.0
CaAl4,0.0
CaAl4O7,3.9994
CaAl4Si2(HO6)2,4.5346
CaAl4Si2O11,5.1049999999999995
CaAl4Tl4O12,0.8502999999999998
CaAl6H12(SO7)4,5.5902
CaAl9Co2,0.0
CaAl9Ni,0.0
CaAlAu,0.0
CaAlB3O7,5.376600000000001
CaAlBO4,4.4509
CaAlCuSi2O9,0.0
CaAlF5,6.8943
CaAlF5,7.1538
CaAlFe3O7,1.8298
CaAlGa,0.0
CaAlH5,3.3146
CaAlH5,3.3518999999999997
CaAlH5,2.9215
CaAlH5,3.3102
CaAlH5,2.7165000000000004
CaAlPd,0.0
CaAlPt,0.0
CaAlSi,0.0
CaAlSiH,0.36939999999999973
CaAlSiHO5,5.2447
CaAlSiO4F,4.980499999999999
CaAlSiO5,0.3200000000000003
CaAs,0.0
CaAs(HO)7,4.1423
CaAs2(HO2)4,3.7933999999999997
CaAs2(XeF5)4,2.3400000000000007
CaAs2F12,4.8545
CaAs2H6F18,5.005
CaAs2HF13,4.6190999999999995
CaAs2WO7,3.075
CaAs3,0.0
CaAs3F15,4.8741
CaAs3F15,0.9260999999999999
CaAsAu,0.0
CaAsH3O5,3.9496
CaAsH5O6,4.0550999999999995
CaAsH5O6,3.4041
CaAsO4,0.0
CaAsPd,0.16080000000000005
CaAsPt,0.0
CaAsWO5,2.213
CaAu,0.0
CaAu2,0.0
CaAu3,0.0
CaAu5,0.0
CaB2,0.0
CaB2(H2O3)2,5.5553
CaB2(H2O3)2,5.3586
CaB2(H5N)2,3.7871
CaB2(H6O5)2,5.4565
CaB2(H7N)2,5.4223
CaB2(HO)8,5.3334
CaB2(HO)8,5.4176
CaB2(HO4)2,0.0
CaB2F8,8.3113
CaB2H10O,5.4184
CaB2H10O9,5.2523
CaB2H13N3,4.6
CaB2H2O7,0.8222
CaB2Rh3,0.0
CaB3H13O12,5.2325
CaB3H3O7,5.7435
CaB3H5O8,5.5945
CaB3H5O8,5.4793
CaB3H7O9,5.4108
CaB3HO6,5.8113
CaB4,0.0
CaB4(H10N)2,5.5565999999999995
CaB4O7,6.3176
CaB4O7,6.1768
CaB5H3O10,5.1418
CaB5H4O9,1.9247
CaB6,0.0
CaB6(H4O7)2,5.1002
CaB8H4O15,5.6011
CaB8O15,0.0
CaBHO3,4.963699999999999
CaBHO3,4.4927
CaBO3,0.3587
CaBO3,0.5519000000000001
CaBPO5,5.3231
CaBPd3,0.0
CaBe13,0.0
CaBe2(PO4)2,5.738300000000001
CaBe3Co2(SiO4)3,2.8321000000000005
CaBe3O4,3.9112
CaBeAsO5,0.6178000000000001
CaBeB2O5,5.822699999999999
CaBeGe,0.0
CaBePO4F,6.1785
CaBePO5,0.5863
CaBeSi,0.0
CaBi2,0.0
CaBi2(CO4)2,1.0617999999999999
CaBi2(PO5)2,0.0
CaBi2B2O7,3.1706
CaBi2Br2O3,0.0
CaBi2O5,0.0
CaBi2O5,0.9018000000000002
CaBi2P2O9,2.7132
CaBi3,0.0
CaBi3O7,0.0
CaBi3P3O13,2.869
CaBi4O9,0.7755000000000005
CaBi6(PO5)4,3.5376000000000003
CaBiAsO5,2.1407000000000003
CaBiAsO6,0.4227000000000001
CaBiAu,0.0
CaBiAu4,0.0
CaBiCO4F,2.2248
CaBiCO4F,1.0483000000000002
CaBiClO2,3.6238
CaBiF5,4.0617
CaBiF5,3.9514000000000005
CaBiF6,0.03720000000000012
CaBiIO2,1.6177000000000001
CaBiMoO5,1.6326999999999998
CaBiMoO5,1.6711
CaBiNO5,2.2881
CaBiO3,0.0
CaBiO3,0.6776
CaBiO3,0.08040000000000003
CaBiPd,0.0
CaBiPd2,0.0
CaBiSbO5,2.3346
CaBiSbO5,2.5549999999999997
CaBiWO5,1.5585999999999998
CaBiWO5,1.7759
CaBr2,4.5304
CaBr2,4.4482
CaC2,0.0
CaC2,2.7708999999999997
CaC2,2.0383
CaC2,2.3706
CaC2,1.3593
CaC2,2.5547
CaC2,2.8643
CaC2,2.3396
CaC2(NO)2,3.8085
CaC2(SN)2,3.4012000000000002
CaC2S2(OF)6,5.9997
CaCN2,3.5774
CaCO3,4.8573
CaCO3,5.0381
CaCO3,4.9216
CaCO3,4.9254
CaCO3,4.9563999999999995
CaCO3,4.9875
CaCO3,4.275500000000001
CaCO3,4.999499999999999
CaCO3,4.1871
CaCO3,4.718299999999999
CaCO3,4.6975
CaCO3,4.9436
CaCO3,4.9726
CaCd,0.0
CaCd(CO3)2,3.3362999999999996
CaCd(WO4)2,3.1642
CaCd2,0.0
CaCd2Cu9,0.0
CaCd2Pd,0.0
CaCd3,0.0
CaCd3O4,0.04590000000000005
CaCd3O4,0.18920000000000003
CaCd6,0.0
CaCdAu,0.0
CaCdAu2,0.0
CaCdGe,0.0
CaCdHg2,0.0
CaCdO2,0.3754999999999997
CaCdP2O7,3.8448
CaCdPb,0.0
CaCdPd,0.0
CaCdPd2,0.0
CaCdPt,0.0
CaCdS2,2.2388999999999997
CaCdSn,0.0
CaCe(FeSb3)8,0.0
CaCe3V4O16,0.0
CaCe4Si3O13,0.16080000000000005
CaCeAg2,0.0
CaCeAl2FeSi3O13,0.4086999999999996
CaCeAlFe2Si3O13,0.30820000000000025
CaCeC2O6F,0.2519
CaCeC4,0.0
CaCeCd2,0.0
CaCeHg2,0.0
CaCeIn2,0.0
CaCeMg14,0.0
CaCeMg2,0.0
CaCeMg6,0.0
CaCeMnO4,0.0
CaCeN2,0.38919999999999977
CaCeO3,2.3372999999999995
CaCePd2,0.0
CaCeRh2,0.0
CaCeV2O8,1.6062
CaCeZn2,0.0
CaCl2,4.8803
CaCl2,5.3533
CaCl2,5.3978
CaCl2,5.3328
CaCl2,5.5987
CaClF,5.6701999999999995
CaCo(GeO3)2,1.935
CaCo(PO3)4,3.0271
CaCo(Si2O5)2,2.6854
CaCo(SiO3)2,2.7877
CaCo(SiO3)2,1.1736
CaCo2(CuO4)2,0.025700000000000056
CaCo2(P2O7)2,0.41999999999999993
CaCo2(PO4)2,2.5259
CaCo2(PO5)2,0.0
CaCo2(SiO3)4,0.0
CaCo2O5,0.242
CaCo2O5,0.0
CaCo2Te3(ClO4)2,2.1672000000000002
CaCo3(P2O7)2,0.8133999999999997
CaCo3(SiO3)4,0.0
CaCo3O7,0.24750000000000005
CaCo3O7,0.0
CaCo3P3O13,0.44009999999999994
CaCo4(CuO4)3,0.0
CaCoAs2O7,2.1148
CaCoAsHO5,1.9298000000000002
CaCoAsO5,1.0381
CaCoBP2H5O11,3.3187000000000006
CaCoBi2O7,0.0
CaCoBiO5,0.0
CaCoBiO5,0.6493
CaCoCu3Se4,0.0
CaCoF4,2.9021
CaCoF5,0.009600000000000053
CaCoF5,1.3636000000000001
CaCoF6,1.3308
CaCoGeO4,2.0128
CaCoNiP2O9,0.15260000000000007
CaCoO2,0.0
CaCoO3,0.0
CaCoP2O7,2.7725999999999997
CaCoP2O7,2.8918
CaCoP2O7,2.8539000000000003
CaCoSb2O7,0.6996000000000002
CaCoSi,0.0
CaCoSi2O7,0.0
CaCoSn2O7,0.0
CaCoWO6,0.0
CaCr(GeO3)2,0.94
CaCr(GeO3)2,0.3882000000000003
CaCr(GeO3)2,0.6903999999999995
CaCr(PO3)4,2.0812
CaCr(Si2O5)2,3.3907000000000003
CaCr(SiO3)2,2.5566999999999998
CaCr(SiO3)2,0.0
CaCr2(P2O7)2,0.0
CaCr2(PO4)2,2.1605999999999996
CaCr2(PO5)2,0.0
CaCr2(Si2O5)4,1.5577999999999999
CaCr2CoO7,0.6934999999999998
CaCr2F10,2.4128999999999996
CaCr2F12,1.4544000000000001
CaCr2O4,2.2575999999999996
CaCr2O4,0.4289999999999998
CaCr2O4,0.0
CaCr2O4,2.1024000000000003
CaCr2O4,1.0057000000000005
CaCr2O4,2.1336000000000004
CaCr2O5,0.5819999999999999
CaCr2O7,2.6242
CaCr2P2O9,1.9363000000000006
CaCr3(P2O7)2,2.2481
CaCr3P3O13,1.0737999999999999
CaCr4(PO4)4,0.0928
CaCr4(PO4)4,0.9438999999999997
CaCr4O6,0.24950000000000028
CaCr4O8,0.0
CaCrAs2O7,1.3289
CaCrAsO5,1.3041999999999998
CaCrBi12(Mo2O17)2,2.5855
CaCrBiO5,0.9176000000000002
CaCrBiO5,0.9017
CaCrCu3Se4,0.06320000000000014
CaCrF4,0.0
CaCrF5,3.1383
CaCrF5,2.7248
CaCrF6,1.5339000000000003
CaCrH2O5,2.9199
CaCrN2,0.010600000000000165
CaCrN2,0.0
CaCrNiP2O9,0.6467999999999998
CaCrO2,1.6415999999999995
CaCrO2,0.7450000000000001
CaCrO3,0.40690000000000026
CaCrO4,2.3714
CaCrP2O7,2.5122
CaCrP2O7,3.0451
CaCrP2O7,0.10760000000000058
CaCu,0.0
CaCu(GeO3)2,0.0
CaCu(PO3)4,0.17389999999999994
CaCu(Si2O5)2,1.0521000000000003
CaCu(SiO3)2,0.4828000000000001
CaCu(SiO3)2,0.0
CaCu2(As2O7)2,0.35209999999999997
CaCu2(BiO4)2,0.0
CaCu2(GeO3)4,0.06840000000000002
CaCu2(GeO3)4,0.0
CaCu2(MoO4)2,1.3138999999999998
CaCu2(P2O7)2,0.5428
CaCu2(Si2O5)4,1.2839
CaCu2(TeO4)2,0.0
CaCu2(WO4)2,1.3795000000000002
CaCu2B2H8(ClO4)2,1.4312
CaCu2F8,1.2139000000000002
CaCu2O3,0.0
CaCu3(BiO3)4,0.0
CaCu3(GeO3)4,0.7027999999999999
CaCu3(IrO3)4,0.0
CaCu3(MoO3)4,0.09940000000000015
CaCu3(NiO3)4,0.0
CaCu3(P2O7)2,0.026799999999999713
CaCu3(PtO3)4,0.0
CaCu3(RuO3)4,0.0
CaCu3(SbO3)4,0.0
CaCu3(SnO3)4,0.39970000000000017
CaCu3(WO3)4,0.0
CaCu3NiSe4,0.0
CaCu3O4,0.0
CaCu3P3O13,0.0
CaCu5,0.0
CaCu9Sn4,0.0
CaCuAs,0.0
CaCuAs2O7,0.14239999999999986
CaCuAsHO5,0.29479999999999995
CaCuAsO5,0.34250000000000025
CaCuBi,0.0
CaCuBi2O7,0.0
CaCuBiO5,0.6036999999999999
CaCuF4,0.7392000000000001
CaCuF5,0.0
CaCuF5,0.14959999999999996
CaCuGe,0.0
CaCuGeH2O5,0.0
CaCuH4(CO2)4,0.46169999999999994
CaCuMo2O7,0.0
CaCuN,0.2561
CaCuN,0.0
CaCuO2,0.03200000000000003
CaCuO2,0.09299999999999997
CaCuO2,0.0
CaCuO3,0.0
CaCuP,0.0
CaCuP2O7,0.2677999999999998
CaCuP2O7,0.03049999999999997
CaCuP2O7,0.0
CaCuP2O7,0.30889999999999995
CaCuP4(RuO7)2,0.008900000000000574
CaCuP4(RuO7)2,0.0040000000000000036
CaCuP4(RuO7)2,0.007800000000000029
CaCuP4(RuO7)2,0.008000000000000007
CaCuS2,0.0
CaCuSb,0.0
CaCuSi,0.0
CaCuSiH2O5,0.12199999999999989
CaCuSn,0.0
CaDy2(GeO3)4,3.1796999999999995
CaDy3,0.0
CaDyAl4,0.0
CaDyHg2,0.0
CaDyMnSnO6,0.6250999999999998
CaDyRh2,0.0
CaDyV4O12,0.0
CaDyZn2,0.0
CaEr15Si8Se11ClO28,2.4593000000000007
CaEr2(GeO3)4,3.1907
CaErAl4,0.0
CaErRh2,0.0
CaEu2(CuO3)2,0.0
CaEu2(GeO3)4,0.0
CaEu2O3,0.0
CaEu2WO6,0.6178000000000008
CaEu3,0.0
CaEu4O5,0.0
CaEuCd2,0.0
CaEuCrSbO6,0.0
CaEuGa2,0.0
CaEuH6Ru,0.20730000000000004
CaEuHfNbO6,0.0
CaEuHfSnO6,0.23399999999999999
CaEuHfTiO6,0.0
CaEuHfVO6,0.0
CaEuHfZrO6,0.3977000000000004
CaEuHg2,0.0
CaEuIn2,0.0
CaEuInSbO6,0.0
CaEuMg2,0.0
CaEuMnWO6,0.2839999999999998
CaEuNbFeO6,0.0
CaEuNbWO6,0.0
CaEuO2,0.0
CaEuS2,0.0
CaEuSi4,0.0
CaEuTi4O12,0.0
CaEuTiSnO6,0.2858999999999998
CaEuTl2,0.0
CaEuV2O6,0.0
CaEuV4O12,0.0
CaEuYNbO6,0.06339999999999968
CaEuYNbO6,0.28469999999999995
CaEuYSbO6,0.15200000000000014
CaEuZn2,0.0
CaEuZr2O6,0.0
CaEuZrMnO6,0.0
CaEuZrNbO6,0.0
CaEuZrSnO6,0.375
CaEuZrTiO6,0.0
CaEuZrVO6,0.0
CaF2,7.467700000000001
CaF2,7.1157
CaF2,6.2538
CaF3,0.0
CaFe(GeO3)2,1.6032000000000002
CaFe(GeO3)2,1.7226000000000004
CaFe(GeO3)2,2.1321999999999997
CaFe(MoO3)2,0.0
CaFe(PO3)4,4.344900000000001
CaFe(Si2O5)2,3.7151000000000005
CaFe(SiO3)2,3.0986
CaFe(SiO3)2,3.4379999999999997
CaFe2(AsO5)2,0.0
CaFe2(PO4)2,3.4349000000000003
CaFe2(PO4)3,0.0
CaFe2(PO5)2,0.0
CaFe2(SiO3)4,1.8920999999999997
CaFe2BiO6,0.0
CaFe2CoO7,0.009300000000000086
CaFe2Cu3(SbO6)2,0.9809999999999999
CaFe2CuO5,0.0
CaFe2F10,0.6391
CaFe2O5,0.0
CaFe2P2HO9,1.2012999999999998
CaFe2P2O9,1.8605
CaFe2P3HO12,1.2309
CaFe2Sb2(PO4)6,2.6572999999999993
CaFe3(P2O7)2,3.8084000000000002
CaFe3(SiO3)4,2.9331000000000005
CaFe3O5,1.3614000000000002
CaFe3P3H2O13,1.6496999999999997
CaFe3P3O13,1.6386000000000003
CaFe3Si2HO9,0.5066999999999999
CaFe3Si2HO9,1.1006999999999998
CaFe3Si2O9,1.1499000000000001
CaFe4(CuO4)3,0.0
CaFe4(PO4)4,1.2373000000000003
CaFe4(PO4)4,1.6928
CaFe4As3,0.0
CaFe5As3,0.0
CaFe5O7,0.0
CaFe5O7,1.2474999999999996
CaFe5P5O22,0.6362999999999999
CaFe6(OF2)4,1.8131999999999997
CaFe6(OF2)4,1.3400999999999998
CaFe6(OF2)4,1.6716000000000002
CaFe6(OF2)4,1.6723000000000001
CaFeAs2O7,1.9293999999999998
CaFeAsO5,1.7460999999999998
CaFeBP2(HO5)2,1.592
CaFeBiO5,0.0
CaFeBiO5,0.7006000000000001
CaFeClO2,0.6341000000000001
CaFeF4,2.8537
CaFeF5,3.6038
CaFeF5,2.8329999999999997
CaFeF6,0.0
CaFeNiP2O9,0.12030000000000007
CaFeO2,1.1341999999999999
CaFeO2,2.5069000000000004
CaFeO2,1.8059999999999996
CaFeO2,0.04020000000000046
CaFeO3,0.0
CaFeO3,0.0607000000000002
CaFeP2O7,3.8755
CaFeP2O7,3.9894
CaFeP2O7,3.3507000000000002
CaFeReO6,0.7279
CaFeSO,0.0
CaFeSbAs2O7,1.7991000000000001
CaFeSeO,1.9171999999999998
CaFeSi2Rh,0.0
CaFeSiO5,0.0
CaFeSn(PO4)3,2.4913
CaFeWO6,0.0
CaGa,0.0
CaGa2,0.0
CaGa2Cu3(RuO6)2,0.0
CaGa2Cu3(SbO6)2,0.6444000000000001
CaGa2Ni,0.0
CaGa3Co2,0.0
CaGa3Ni2,0.0
CaGa3Pt,0.0
CaGa4,0.0
CaGa4O7,2.5387
CaGaAu,0.0
CaGaAu3,0.0
CaGaBO4,3.9612
CaGaBiB2O7,3.6637000000000004
CaGaCu,0.0
CaGaGe,0.0
CaGaGeH,0.5269000000000004
CaGaH5,4.1497
CaGaN,0.0
CaGaPt,0.0
CaGaSi,0.0
CaGaSiH,0.34160000000000057
CaGaSn,0.0
CaGaSnH,0.24789999999999957
CaGd2(GeO3)4,3.1596
CaGd2BeO5,2.5808000000000004
CaGd2O4,3.26
CaGd2O4,2.4804
CaGd2O4,2.9964
CaGd2Zr(GaO3)4,2.9392000000000005
CaGd4O7,2.8514999999999997
CaGdAlO4,2.4483000000000006
CaGdCd2,0.0
CaGdHg2,0.0
CaGdPd2,0.0
CaGdRh2,0.0
CaGdS2,0.0
CaGdTh(PO4)3,2.4063
CaGdZn2,0.0
CaGe,0.0
CaGe(PO4)2,3.9027
CaGe(SO4)3,1.3832
CaGe2,0.0
CaGe2O5,2.4523
CaGe2O5,2.6965999999999997
CaGe2O5,2.4967
CaGe2Pt,0.0
CaGe2WO6,2.147
CaGe2WO6,1.4198999999999997
CaGe3,0.0
CaGe3P2(SO6)4,1.2197
CaGe7N10,2.6247
CaGeAu,0.0
CaGeN2,2.6621999999999995
CaGeO3,0.5017000000000005
CaGeO3,3.4812999999999996
CaGeO3,2.5120999999999998
CaGeO3,3.2925
CaGeO3,3.3911
CaGeO3,2.0286999999999997
CaGePt,0.0
CaH12(BrO3)2,4.1372
CaH12(ClO3)2,4.986800000000001
CaH12(ClO7)2,5.1326
CaH12(IO6)2,4.1318
CaH12(IO7)2,1.9185
CaH12C2N7ClO6,3.1666
CaH12CO9,4.8957999999999995
CaH12S2(NO5)2,4.6486
CaH12S2O9,4.1309000000000005
CaH14I10O7,0.6776000000000001
CaH14I2O7,3.6637999999999997
CaH16(IO4)2,3.7278000000000002
CaH16C4(N7O2)2,4.6188
CaH16C4(NO)10,3.3534
CaH16C4N8(ClO2)2,5.0849
CaH18Br2O9,4.3198
CaH2,0.7047000000000003
CaH2,0.6541000000000001
CaH2,3.0275
CaH2,0.6536000000000004
CaH2(CO2)2,4.6455
CaH2(CO2)2,4.6966
CaH2(CO2)2,4.6613
CaH2(SO4)2,5.836
CaH24(BrN4)2,3.9677
CaH24(IN4)2,3.5261
CaH24C6(BrO3)2,4.6551
CaH24C6Br2(N2O)6,4.6316
CaH2C2O5,3.5111
CaH2C2O5,3.5377
CaH2CClO3,3.5857
CaH2CO4,5.239800000000001
CaH2CO4,5.217
CaH2F4,7.6467
CaH2I2O7,3.3605
CaH2Pd,0.0
CaH3NO5,3.4120999999999997
CaH3Pd,0.0
CaH4(ClO)2,5.2817
CaH4Ir(OF3)2,0.0
CaH4NClO5,3.5639000000000003
CaH4SO6,5.6879
CaH4SO6,5.3533
CaH4Se2O7,4.1584
CaH4Se2O9,3.3388
CaH4SeO6,3.8816
CaH6(C2O3)2,3.9321
CaH6(SO4)4,5.8984000000000005
CaH6C2(NO)4,4.3104
CaH6C2O7,3.7229
CaH6PtO6,2.0139
CaH8(BrO6)2,3.1367000000000003
CaH8(BrO6)2,0.01089999999999991
CaH8(ClO2)2,5.0874
CaH8(ClO2)2,5.5299
CaH8(ClO2)2,5.1469000000000005
CaH8(ClO6)2,5.2201
CaH8(NO5)2,3.4823000000000004
CaH8(NO5)2,3.3842
CaH8(NO5)2,3.2769
CaH8C2N4O5,4.982
CaH8C6S2(NO4)2,2.5632
CaHBr,4.1152
CaHCl,3.8394000000000004
CaHClO,5.3294999999999995
CaHF,4.674
CaHI,3.5271000000000003
CaHN,2.1929999999999996
CaHf(SO4)3,4.6281
CaHf3P2(SO6)4,3.9736000000000002
CaHf3SiS5O24,3.1729000000000003
CaHf4O9,4.4454
CaHf8(N2O)4,0.2834000000000003
CaHf8(N2O)4,0.4783999999999997
CaHfMg14,0.0
CaHfMg14O16,0.0
CaHfMg30O32,0.0
CaHfMg6,0.0
CaHfN2,0.5432999999999995
CaHfNbInO6,0.5366999999999997
CaHfO3,3.6612
CaHfO3,4.4855
CaHfS3,1.5238
CaHfTiSnO6,2.3192000000000004
CaHfTlF7,5.5318000000000005
CaHg,0.0
CaHg11,0.0
CaHg2,0.0
CaHg3,0.0
CaHgH16(BrO2)4,2.6627
CaHgH16(BrO2)4,2.8966000000000003
CaHgO2,2.125
CaHgPb,0.0
CaHo(BiO3)2,0.0
CaHo(CoO3)2,0.0
CaHo(FeO3)2,0.0
CaHo(MoO3)2,1.0214999999999996
CaHo(NiO3)2,0.0
CaHo(SnO3)2,0.0
CaHo(WO3)2,2.04
CaHo2(GeO3)4,3.19
CaHo3,0.0
CaHoCd2,0.0
CaHoCr2O6,0.0
CaHoHg2,0.0
CaHoMn2O6,0.0
CaHoPd2,0.0
CaHoRh2,0.0
CaHoTi2O6,0.0
CaHoV2O6,1.0743
CaHoZn2,0.0
CaI2,3.8971
CaIn,0.0
CaIn2,0.0
CaIn2(PO4)3,0.017900000000000027
CaIn2Au,0.0
CaIn2Cu,0.0
CaIn2Ir,0.0
CaIn2Ni,0.0
CaIn2O4,2.0207999999999995
CaIn2Pd,0.0
CaIn2Pt,0.0
CaIn2Rh,0.0
CaIn4Ir,0.0
CaIn4Ni,0.0
CaIn4Pd,0.0
CaIn4Rh,0.0
CaInAg2,0.0
CaInAu,0.0
CaInAu2,0.0
CaInBr3,2.8725
CaInCu4,0.0
CaInHg2,0.0
CaInI3,2.7834999999999996
CaInPd,0.0
CaInPd2,0.0
CaInPt,0.0
CaInRh,0.0
CaIr2,0.0
CaIrN2,0.0
CaIrO3,0.0
CaLa,0.0
CaLa(CoO3)2,0.0
CaLa(FeO3)2,0.0
CaLa(GeIr)4,0.0
CaLa2(FeO3)3,0.0
CaLa2B10O19,4.3132
CaLa2BeO5,3.936399999999999
CaLa2BiO6,0.0
CaLa2Co2Sb2(PbO6)2,1.8872
CaLa2Co2Sb2(PbO6)2,1.5866999999999996
CaLa2Co2Sb2(PbO6)2,1.7428999999999997
CaLa2Co2Sb2(PbO6)2,1.7117999999999993
CaLa2CoO6,0.7228000000000003
CaLa2CoO6,0.10540000000000038
CaLa2CoO6,0.011700000000000266
CaLa2CrO6,0.0
CaLa2Cu2O7,0.0
CaLa2Fe2(TeO6)2,2.0811
CaLa2Fe2(TeO6)2,1.8552
CaLa2FeO6,0.5577000000000005
CaLa2FeO6,0.5023999999999997
CaLa2FeO6,1.7183000000000002
CaLa2Mn2(FeO6)2,0.0
CaLa2Mn3O9,0.0
CaLa2MnO6,2.347200000000001
CaLa2MoO6,1.4188
CaLa2SbO6,0.0
CaLa2SnO6,3.8927999999999994
CaLa2Ti2Cr2O12,0.5789
CaLa2Ti2Mn2O12,0.0
CaLa2TiO6,3.1705000000000005
CaLa2VO6,1.7858999999999998
CaLa2WO6,2.0397