formula,band_gap
Eu2ZrTiO6,0.0034000000000000696
Eu2ZrVO6,0.0
Eu2ZrWO6,0.0
Eu3(AlAs2)2,0.00590000000000046
Eu3(AlP2)2,0.02660000000000018
Eu3(AsPd)4,0.0
Eu3(AsS4)2,0.24860000000000015
Eu3(B3Rh4)2,0.0
Eu3(BO3)2,0.4588000000000001
Eu3(Cu2Sn)4,0.0
Eu3(Ga2Ge3)2,0.0
Eu3(GaAs2)2,0.0
Eu3(GaNi)4,0.0
Eu3(GaP2)2,0.0
Eu3(GeAs2)2,0.012199999999999989
Eu3(GeIr)4,0.0
Eu3(InP2)2,0.0
Eu3(MgGe)5,0.0
Eu3(MgSi)5,0.0
Eu3(PPt)4,0.0
Eu3(SF2)2,0.0
Eu3(SiAs2)2,0.0
Eu3(SiNi3)2,0.0
Eu3(SnPd)2,0.0
Eu3Ag,0.0
Eu3Ag2,0.0
Eu3Al2O7,0.0
Eu3Al5O12,0.0
Eu3AlO5,0.0
Eu3As4,0.0
Eu3Au,0.0
Eu3Au2,0.0
Eu3AuO6,0.0
Eu3B2(O2F)3,0.0
Eu3B2Pt7,0.0
Eu3BWO9,0.1843999999999999
Eu3BeO5,0.0
Eu3Bi,0.0
Eu3Dy,0.0
Eu3DySb3,0.0
Eu3Er,0.0
Eu3Fe5O12,0.033199999999999896
Eu3Ga2,0.0
Eu3Ga5,0.0
Eu3Ga5O12,0.0
Eu3Ga8,0.0
Eu3GaO6,0.0
Eu3GaP3,0.0
Eu3Ge13Os4,0.0
Eu3Ge5,0.0
Eu3Ho,0.0
Eu3In,0.0
Eu3InO,0.0
Eu3InP3,0.0
Eu3IrO7,0.0
Eu3Lu,0.0
Eu3Mg,0.0
Eu3MoO7,0.0
Eu3NbO6,0.0
Eu3NbO7,0.0
Eu3Ni7B2,0.0
Eu3O4,0.0
Eu3OsO7,0.0
Eu3P,0.0
Eu3P4,0.0
Eu3Pd,0.0
Eu3Pd2,0.0
Eu3Pt2,0.0
Eu3ReO7,0.0
Eu3ReO8,0.0
Eu3Rh,0.0
Eu3Rh4Pb13,0.02859999999999996
Eu3RuO7,0.0
Eu3S4,0.0
Eu3Sb,0.0
Eu3Sb4S9,0.0
Eu3Sb4Se9,0.0
Eu3Sb5O12,0.0
Eu3SbO7,0.0
Eu3Sc2(FeO4)3,0.0
Eu3Sc2Al3O12,0.17289999999999983
Eu3Si2BO10,0.0
Eu3Si4,0.0
Eu3Si6N4O9,0.1501999999999999
Eu3Sn,0.0
Eu3Sn13Ir4,0.10860000000000003
Eu3Sn13Rh4,0.0
Eu3Sn2S7,0.0
Eu3Sn5,0.0
Eu3Ta5O15,0.0
Eu3TaO6,0.0
Eu3TaO7,0.0
Eu3Ti2O7,0.0
Eu3Tl,0.0
Eu3Tm,0.0
Eu3V2O7,0.0
Eu3VGeO9,0.0
Eu3W(ClO2)3,0.0
Eu3Y,0.0
Eu3YMn4O12,0.0
Eu3Zn2(CuP2)2,0.0
Eu4As2O,0.0
Eu4As3,0.0
Eu4As7Ir8,0.0
Eu4Au2O9,0.0
Eu4B4O11F2,0.0
Eu4BClO7,0.0
Eu4BPd12,0.0
Eu4Bi2O,0.0
Eu4Bi3,0.0
Eu4Br6O,0.8538000000000006
Eu4C2N4F5,0.16239999999999988
Eu4Cl6O,0.9888000000000003
Eu4I6O,1.2001999999999997
Eu4Ir,0.0
Eu4Lu(SnS4)3,0.0
Eu4O3F7,0.0
Eu4Sb2O,0.0
Eu4Ti3O10,0.0
Eu4Zn51,0.0
Eu5(MoO6)2,0.0
Eu5(ZrS4)3,0.0
Eu5As3,0.0
Eu5As4,0.0
Eu5B3ClO9,0.31950000000000056
Eu5B3O9F,0.10949999999999971
Eu5Bi3,0.0
Eu5Cd2Sb5O,0.0
Eu5CdCu2,0.0
Eu5Ga3,0.0
Eu5Ga9,0.0
Eu5Ge3,0.0
Eu5Mg,0.0
Eu5Nb4O15,0.0
Eu5P3ClO12,0.6848000000000001
Eu5P3O12F,0.3906999999999998
Eu5P3O13,0.0
Eu5Pd2,0.0
Eu5Pt2,0.0
Eu5Pt4,0.0
Eu5Sb3,0.0
Eu5Si(Cl3O2)2,0.8506
Eu5Si3,0.0
Eu5Si3H,0.0
Eu5Si3O12F,0.0
Eu5Si3O13,0.0
Eu5Sn3H,0.0
Eu5Ta4O15,0.0
Eu5V3S6O7,0.0
Eu6Mg7H26,0.42680000000000007
Eu6MgWO12,0.01770000000000005
Eu6MgWO12,0.0
Eu6Ni20P13,0.0
Eu6P19Rh30,0.0
Eu6Sb6S17,0.0
Eu6WO12,0.0
Eu7(ClF6)2,0.5699000000000005
Eu7Au3,0.0
Eu7Cu44As23,0.0
Eu8C4I9N7,0.6649000000000003
Eu8In3,0.0
Eu8Mn3Nb5O28,0.0
Eu8Ni18P11,0.0
Eu9(Ni13P6)2,0.0
EuAg,0.0
EuAg(WO4)2,0.0
EuAg2,0.0
EuAg2Pb,0.0
EuAg2Sn,0.0
EuAg3,0.0
EuAg5,0.0
EuAgAs,0.0
EuAgAu2,0.0
EuAgBi,0.0
EuAgGe,0.0
EuAgHg2,0.0
EuAgO2,0.0
EuAgP,0.0
EuAgSb,0.0
EuAgSn,0.0
EuAl,0.0
EuAl12O19,0.16959999999999908
EuAl2,0.0
EuAl2Ag3,0.0
EuAl2Ge,0.0
EuAl2O4,0.09919999999999973
EuAl3(BO3)4,0.0
EuAl3(BO3)4,3.8244000000000002
EuAl3(PbO4)2,0.0783999999999998
EuAl3Ag2,0.0
EuAl3Cu2,0.0
EuAl3Pd2,0.0
EuAl3Si,0.0
EuAl4,0.0
EuAl8SiAu4,0.0
EuAl9Co2,0.0
EuAlAg4,0.0
EuAlAu,0.0
EuAlF5,0.7191000000000001
EuAlGa,0.0
EuAlGe,0.0
EuAlGe2O7,0.0
EuAlO3,0.0
EuAlSi,0.0
EuAs,0.0
EuAs3,0.0
EuAsAu,0.0
EuAsO4,0.0
EuAsPd,0.0
EuAsPt,0.0
EuAsS,0.0
EuAu,0.0
EuAu2,0.0
EuAu3,0.0
EuAu5,0.0
EuB12,0.0
EuB2Rh3,0.0
EuB4O7,1.912399999999999
EuB4Ru,0.0
EuB6,0.0
EuBN2,0.0
EuBO3,0.0
EuBPd3,0.0
EuBPt4,0.0
EuBRh3,0.0
EuBe13,0.0
EuBi2,0.0
EuBi2BrO4,0.0
EuBi2ClO4,0.0
EuBi2IO4,0.0
EuBi3,0.0
EuBiAu,0.0
EuBiAu2,0.0
EuBiPd2,0.0
EuBr2,1.1673000000000002
EuBr2,1.0457999999999998
EuBr3,0.0
EuBrCl,0.8183000000000002
EuBrO,0.0
EuC2,0.0
EuC2(SN)2,0.0
EuC6,0.0
EuCN2,0.4575
EuCO3,0.42929999999999957
EuCO4,0.0
EuCd,0.0
EuCd(BO2)5,4.019500000000001
EuCd11,0.0
EuCd2,0.0
EuCd2In,0.0
EuCd3,0.0
EuCd3S4,0.0
EuCdAg,0.0
EuCdAg2,0.0
EuCdAu,0.0
EuCdAu2,0.0
EuCdAu5,0.0
EuCdGe,0.0
EuCdHg2,0.0
EuCdPb,0.0
EuCdPd,0.0
EuCdPt,0.0
EuCdSn,0.0
EuCl2,1.2108999999999996
EuCl2,1.2143999999999995
EuCl3,0.0
EuClF,0.11549999999999994
EuClO,0.0
EuCo2SiGe,0.0
EuCo8P5,0.0
EuCo9Si2,0.0
EuCoGe3,0.0
EuCoO3,0.0
EuCrHO5,0.00040000000000001146
EuCrO3,0.0
EuCrO4,0.0
EuCrTeO6,0.0
EuCu,0.0
EuCu(MoO4)2,0.0
EuCu(WO4)2,0.0
EuCu2,0.0
EuCu2SnS4,0.0
EuCu3Pd2,0.0
EuCu4P3,0.0
EuCu4Pd,0.0
EuCu5,0.0
EuCu9Sn4,0.0
EuCuAs,0.0
EuCuBi,0.0
EuCuGe,0.0
EuCuO2,0.0
EuCuO3,0.0
EuCuP,0.0
EuCuSF,0.07330000000000059
EuCuSb,0.0
EuCuSeF,0.03049999999999997
EuCuSeO,0.0
EuCuSi3,0.0
EuCuSn,0.0
EuCuSn2,0.0
EuCuTeF,0.7290999999999999
EuDy2O4,0.0
EuDyCuS3,0.062100000000000044
EuDyTi2O7,0.0007999999999999119
EuDyTi4O12,0.0
EuEr,0.0
EuEr2O4,0.41690000000000005
EuErTl2,0.0
EuF2,0.0
EuF3,0.0
EuFe4(CuO4)3,0.0
EuFeGe2O7,0.0
EuFeO3,0.0
EuGa,0.0
EuGa2,0.0
EuGa3(BO3)4,0.0
EuGa3Ag,0.0
EuGa3Co2,0.0
EuGa3Cu,0.0
EuGa3Ni2,0.0
EuGa3Pd,0.0
EuGa4,0.0
EuGa4Au3,0.0
EuGaAg,0.0
EuGaAg4,0.0
EuGaAu,0.0
EuGaAu2,0.0
EuGaCu,0.0
EuGaGe,0.0
EuGaGe2O7,0.0
EuGaO3,0.0
EuGaPt,0.0
EuGaSi,0.0
EuGaSn,0.0
EuGdRh2,0.0
EuGdTi2O7,0.0037000000000002586
EuGe,0.0
EuGe2,0.0
EuGe2Ir,0.0
EuGe3,0.0
EuGe3Ir,0.0
EuGe3Pd,0.0
EuGe3Pt,0.0
EuGe3Rh,0.0
EuGe7Ir3,0.0
EuGe7Rh3,0.0
EuGeAu,0.0
EuGeO3,0.0
EuGePd,0.0
EuGePd2,0.0
EuGePt,0.0
EuGeS3,0.0
EuH2,0.0
EuH32C8N4Cl7,0.0
EuH3CSO7,0.1166
EuH3Pd,0.0
EuH4S2NO8,0.0
EuH6CI3N,1.4358999999999997
EuH9C5(NO4)2,0.0
EuHCl,0.30799999999999983
EuHSO5,0.0
EuHfCrBiO6,0.0
EuHfF7,0.1365000000000003
EuHfFeBiO6,0.0
EuHfNbSnO6,0.0
EuHfO3,0.4795999999999996
EuHfS3,0.12870000000000026
EuHfVSnO6,0.0
EuHfZrSnO6,0.0
EuHg,0.0
EuHg2,0.0
EuHg2Bi,0.0
EuHg2Pb,0.0
EuHg3,0.0
EuHgAu2,0.0
EuHgPb,0.0
EuHo2O4,0.41240000000000077
EuHo3,0.0
EuI2,1.3259000000000003
EuI2,1.4092000000000002
EuI2,1.4536999999999995
EuIBr,0.9729999999999999
EuICl,0.9204999999999997
EuIO,0.0
EuIn,0.0
EuIn2,0.0
EuIn2(GeIr)4,0.12710000000000043
EuIn2Au,0.0
EuIn2Ni,0.0
EuIn2Ni9,0.0
EuIn2Pd,0.0
EuIn2Rh,0.0
EuIn3,0.0
EuIn4,0.0
EuIn4Au,0.0
EuIn4Cu,0.0
EuIn4Ir,0.0
EuIn4Ni,0.0
EuIn4Pd,0.0
EuIn6Ni7,0.0
EuInAg2,0.0
EuInAu,0.0
EuInAu2,0.0
EuInGe,0.0
EuInHg2,0.0
EuInNi5,0.0
EuInO3,0.0
EuInPd,0.0
EuInPt,0.0
EuInPt4,0.0
EuInRh,0.0
EuIr2,0.0
EuLu2O4,0.1374000000000004
EuLuCuS3,0.23710000000000075
EuMg,0.0
EuMg(BO2)5,0.011699999999999822
EuMg149,0.01849999999999996
EuMg2,0.0
EuMg2Cu9,0.0
EuMg2H5,0.0
EuMg3,0.0
EuMg3SiN4,0.15890000000000004
EuMg5,0.0
EuMgAg,0.0
EuMgAl11O19,0.0
EuMgBiSbO6,0.0
EuMgCd2,0.0
EuMgF4,0.28580000000000005
EuMgGa,0.0
EuMgGa3,0.0
EuMgGe,0.0
EuMgH4,0.17059999999999986
EuMgHg2,0.0
EuMgNi,0.0
EuMgPb,0.0
EuMgPd,0.0
EuMgSi,0.0
EuMgSn,0.0
EuMgSnWO6,0.2325999999999997
EuMgTl,0.0
EuMgTl2,0.0
EuMgZn2,0.0
EuMn2O5,0.0
EuMn4(CuO4)3,0.0
EuMnBi2,0.0
EuMnNbSnO6,0.0
EuMnO3,0.0
EuMnSnWO6,0.15329999999999977
EuMoO3,0.0
EuMoO4,0.16659999999999986
EuMoO4F,0.0
EuMoO5,0.0
EuN,0.0
EuNb2O6,0.15519999999999978
EuNb8O14,0.0
EuNbCrBiO6,0.0
EuNbCrSnO6,0.0
EuNbFeSnO6,0.0
EuNbGaSnO6,0.15590000000000082
EuNbInSnO6,0.06489999999999974
EuNbNO2,0.0
EuNbO3,0.0
EuNbO4,0.0
EuNbVSnO6,0.0
EuNi2B2C,0.0
EuNi4B,0.0
EuNi5,0.0
EuNi5As3,0.0
EuNi5P3,0.0
EuNi9Ge4,0.0
EuNiGe,0.0
EuNiGe2,0.0
EuNiGe3,0.0
EuNiO3,0.0
EuNiP,0.0
EuNiSnWO6,0.21399999999999952
EuNpO3,0.0
EuO,0.0
EuOF,0.0
EuP,0.0
EuP3,0.0
EuP5O14,0.0
EuP7,0.37600000000000033
EuPAu,0.0
EuPH5CO7,0.0
EuPIr,0.0
EuPO4,0.0
EuPPd,0.0
EuPPt,0.0
EuPS3,0.8440000000000003
EuPSe3,0.16999999999999993
EuPaO4,0.0
EuPb,0.0
EuPb3,0.0
EuPbAu2,0.0
EuPd,0.0
EuPd2,0.0
EuPd3,0.0
EuPd3S4,0.0
EuPt2,0.0
EuRh2,0.0
EuRh3C,0.0
EuRhO3,0.0
EuS,0.0
EuS2,0.0
EuSO4,1.2805
EuSb2,0.0
EuSbAu,0.0
EuSbO4,0.0
EuSbPd,0.0
EuSbPt,0.0
EuScGe,0.0
EuScO3,0.0
EuSe,0.0
EuSe2,0.0
EuSeClO3,0.0
EuSeO3,0.08659999999999979
EuSeO4,0.0
EuSi,0.0
EuSi2,0.0
EuSi2(NO)2,0.2793000000000001
EuSi2Ni,0.0
EuSi2Ni9,0.0
EuSi2PdAu,0.0
EuSi2Pt,0.0
EuSi3Ir,0.0
EuSi3Ni,0.0
EuSi3Rh,0.0
EuSi6,0.0
EuSiAg,0.0
EuSiNi2Ge,0.0
EuSiPd,0.0
EuSiPt,0.0
EuSn,0.0
EuSn2Ir,0.0
EuSn3,0.0
EuSn3Sb4,0.0
EuSnAu2,0.0
EuSnF7,0.0
EuSnHg,0.0
EuSnO3,0.0
EuSnP,0.0
EuSnPd,0.0
EuSnPt,0.0
EuSnRh2,0.0
EuTa2O6,0.0
EuTa3O9,0.0
EuTaNO2,0.0
EuTaO4,0.0
EuTcO3,0.0
EuTe,0.0
EuTe2Pb,0.0
EuTh3,0.0
EuTi4SnO12,0.0
EuTiAgO4,0.0
EuTiClO3,0.0
EuTiNbBi2O9,0.0
EuTiNbSnO6,0.0
EuTiO3,0.0
EuTl,0.0
EuTl(MoO4)2,0.0
EuTl(WO4)2,0.0
EuTl2,0.0
EuTl2Cd,0.0
EuTl2Pd,0.0
EuTl3,0.0
EuTlAu2,0.0
EuTlHg2,0.0
EuTlPS4,0.05660000000000043
EuTlS2,0.0
EuTlS2O9,0.0
EuTm2O4,0.4298000000000002
EuTmB12,0.0
EuTmCuS3,0.23409999999999975
EuU2S5,0.0
EuUO3,0.0
EuV(SeO4)2,0.0
EuV2BiO8,0.0
EuV2IO9,0.0
EuVO3,0.0
EuVO4,0.0
EuWO5,0.0
EuY2O4,0.3841000000000001
EuY2O4,0.39029999999999987
EuY2O4,0.4062000000000001
EuY3,0.0
EuYAl4,0.0
EuYAl6(BO3)8,0.0
EuYO2,0.0
EuYSi4N7,0.0
EuZn,0.0
EuZn(BO2)5,0.0
EuZn11,0.0
EuZn13,0.0
EuZn2,0.0
EuZn5,0.0
EuZnAu,0.0
EuZnAu2,0.0
EuZnGa,0.0
EuZnGe,0.0
EuZnIn,0.0
EuZnIn3,0.0
EuZnPb,0.0
EuZnPd,0.0
EuZnSi,0.0
EuZnSn,0.0
EuZnSnWO6,0.18979999999999997
EuZr2SnO6,0.000900000000000567
EuZr3F15,0.014900000000000135
EuZr4O9,0.20570000000000022
EuZr6(PO4)9,0.0
EuZrF6,0.5628000000000002
EuZrF7,0.13919999999999977
EuZrO3,0.18659999999999943
EuZrO3,0.4662999999999995
EuZrO3,0.3877000000000006
EuZrS3,0.14529999999999976
EuZrSe3,0.0
F2,2.6938
F2,2.4555999999999996
F2,3.0949
Fe,0.0
Fe(AsO2)2,2.4168000000000003
Fe(B2Mo)2,0.0
Fe(BMo)2,0.0
Fe(BO2)2,3.8031
Fe(BO2)2,4.099600000000001
Fe(BO2)2,0.0
Fe(BRh2)3,0.0
Fe(BW)2,0.0
Fe(Bi5O8)5,0.7403000000000004
Fe(CO3)2,0.0
Fe(CoN)3,0.0
Fe(CoO2)2,0.27059999999999995
Fe(CoO3)2,0.0
Fe(CoS)8,0.0
Fe(CoSe2)2,0.0
Fe(CuS)2,0.0
Fe(GeO3)2,0.0
Fe(GeO3)2,0.06739999999999999
Fe(HO)2,2.3103999999999996
Fe(HO)2,2.4707
Fe(HO)2,2.4268
Fe(IO3)3,2.4612000000000003
Fe(Mo3Se4)2,0.0
Fe(MoS2)2,0.0
Fe(NiAs)2,0.0
Fe(NiO2)2,0.0
Fe(NiS2)2,0.0
Fe(NiSe2)2,0.0
Fe(PO3)2,2.3833
Fe(PO3)3,2.9129
Fe(PO3)3,2.8437
Fe(PO3)3,1.6353000000000002
Fe(PO3)3,2.7933999999999997
Fe(PO3)3,0.5290000000000001
Fe(PO3)3,2.4311
Fe(PO3)3,1.6221
Fe(PO3)4,0.0
Fe(PO3)4,0.08150000000000002
Fe(PO3)4,0.1547
Fe(PO3)4,0.6162
Fe(PO3)4,0.010599999999999943
Fe(PO3)4,0.05610000000000004
Fe(PO3)5,0.0
Fe(PO3)5,0.5524
Fe(PS3)2,0.0
Fe(PdSe)2,0.0
Fe(ReO3)2,0.0
Fe(RhS2)2,0.0
Fe(RhSe2)2,0.0
Fe(SO4)2,0.0
Fe(SbO2)2,0.5327000000000002
Fe(SbO2)2,0.15859999999999985
Fe(SbO2)2,1.3937999999999997
Fe(SbO2)2,0.0
Fe(SbO3)2,0.0
Fe(SbO3)4,0.0
Fe(SbS2)2,0.19890000000000008
Fe(Se2O5)2,0.0
Fe(SeO3)2,0.0
Fe(SeO3)3,0.2646
Fe(Si2O5)2,1.0807
Fe(SiO3)2,0.723
Fe(SiO3)2,0.0
Fe(SiP)4,1.0232999999999999
Fe(SiSe2)2,0.0
Fe(TeO3)2,1.851
Fe(W3Cl7)2,0.7656000000000001
Fe(WCl5)2,0.0
Fe(WO4)2,0.0
Fe10Bi5O24,0.0
Fe10O11,1.2106
Fe10O11,1.3085999999999998
Fe10O11F9,0.0
Fe10O11F9,0.8945000000000001
Fe10O11F9,0.8926999999999998
Fe10O19F,0.0
Fe10O9F11,1.0712
Fe10O9F11,0.8955000000000002
Fe10O9F11,0.3015000000000003
Fe10O9F11,0.8932999999999998
Fe10O9F11,1.1971
Fe10O9F11,0.8992
Fe10O9F11,0.0
Fe10O9F11,0.6011
Fe10O9F11,0.5983000000000003
Fe10O9F11,0.8964000000000001
Fe10O9F11,0.2987000000000002
Fe10O9F11,1.1994000000000002
Fe10O9F11,0.5968
Fe10O9F11,0.29849999999999977
Fe10O9F11,0.45610000000000017
Fe10O9F11,0.5989
Fe10O9F11,1.1931
Fe10O9F11,1.1675999999999997
Fe10O9F11,0.3003
Fe10OF19,1.9662
Fe10OF19,2.0
Fe10OF19,0.4866999999999999
Fe10OF19,1.1967000000000003
Fe10OF19,1.8969
Fe10OF19,1.3841
Fe11(NiO3)8,0.0
Fe11Co5,0.0
Fe11Mo6C5,0.0
Fe11MoC4,0.0
Fe11O12,1.3876
Fe11S12,0.0
Fe11Si5,0.0
Fe12As5,0.0
Fe12Ge3As2,0.0
Fe12N5,0.0
Fe12O13,0.0
Fe12PbO19,0.0
Fe12PbO19,0.8739000000000003
Fe13(NiO10)2,0.0
Fe13(SnO10)2,0.43649999999999967
Fe13Co3,0.0
Fe13Cu5O24,0.0
Fe13Ge3,0.0
Fe13Mo9,0.0
Fe13O14,0.0
Fe13O15,0.9051
Fe14Cu7(PO4)18,0.0827
Fe14O15,0.6050999999999993
Fe15(Ge2O9)4,0.006399999999999739
Fe15Co,0.0
Fe15O16,1.4826000000000001
Fe15O16,0.6044000000000005
Fe17O18,1.2205
Fe19(SiO4)12,1.2866
Fe19Co5O32,0.12549999999999972
Fe2(AsO4)3,0.0
Fe2(CN2)3,0.0
Fe2(CO3)3,1.6598
Fe2(MoO4)3,2.4279
Fe2(MoO4)3,2.6649000000000003
Fe2(MoO4)3,2.4941
Fe2(MoO4)3,2.4957000000000003
Fe2(PO3)5,1.3358000000000003
Fe2(PO4)3,0.0
Fe2(PdAu)3,0.0
Fe2(SO4)3,0.004500000000000004
Fe2(SO4)3,2.2146
Fe2(Se2O5)3,0.7093999999999999
Fe2(SeO4)3,2.2467
Fe2(TeO3)3,1.8629999999999995
Fe2(TeO3)3,1.6098
Fe2(WO4)3,2.5124
Fe2(WO4)3,2.6917
Fe21(MoC3)2,0.0
Fe21(WC3)2,0.0
Fe21HO32,1.2453999999999996
Fe21HO32,1.3254000000000001
Fe21Ni9O40,0.0
Fe21O23,1.3487
Fe21O32,0.0
Fe22B6W,0.0
Fe23(BC)3,0.0
Fe23B6,0.0
Fe23C6,0.0
Fe23O25,0.9117000000000002
Fe23O32,0.009599999999999831
Fe23O32,0.2974000000000001
Fe24N11,0.0
Fe25Mo4,0.0
Fe25O32,0.0
Fe25Si11O48,0.04359999999999964
Fe2Ag(MoO4)3,1.1415000000000002
Fe2AgS3,0.0
Fe2As,0.0
Fe2As2H2PbO10,1.6533
Fe2As2PbO10,0.021300000000000097
Fe2AsH19SO18,2.7292
Fe2AsO4F,1.9063999999999999
Fe2AsP,0.0
Fe2AsS3,0.0
Fe2AsSO9,0.05269999999999997
Fe2B,0.0
Fe2B(PO4)3,2.025
Fe2B2O5,3.2492
Fe2B4Mo,0.0
Fe2B7,0.0
Fe2BO4,1.1644
Fe2BO4,0.024699999999999722
Fe2BO4,0.8631000000000006
Fe2C,0.0
Fe2C2O7,1.627
Fe2C2O7,1.3798
Fe2C2O7,1.8969
Fe2C2O7,1.8948
Fe2Co(PO4)3,0.051899999999999835
Fe2Co3H4(Se3O10)2,1.746
Fe2Co3O10,0.0
Fe2Co3Sb3O16,0.9379999999999997
Fe2CoAs2(H5O7)2,1.5109
Fe2CoC,0.0
Fe2CoGe,0.0
Fe2CoO4,0.14480000000000004
Fe2CoO4,0.6561000000000003
Fe2CoO4,0.04220000000000024
Fe2CoO4,0.0
Fe2CoO4,0.8372999999999999
Fe2CoO4,1.5511
Fe2CoO4,0.8766000000000003
Fe2CoO6,0.0
Fe2CoSe4,0.0
Fe2CoSi,0.0
Fe2Cu(P2O7)2,0.0
Fe2Cu(PO4)3,0.0
Fe2Cu(PO5)2,0.0
Fe2Cu10Sb4S13,0.0
Fe2Cu13(GeS8)2,0.0
Fe2Cu2Ge4O13,0.0
Fe2Cu3(SeO3)6,0.2582000000000002
Fe2Cu3(SeO3)6,0.20909999999999984
Fe2Cu3(Sn3Se8)2,0.011200000000000543
Fe2Cu6SnS8,0.0
Fe2Cu8P4O21,0.0
Fe2CuAs2(HO5)2,0.31709999999999994
Fe2CuAs2(HO5)2,0.7757000000000001
Fe2CuGe2,0.0
Fe2CuH4(OF4)2,1.0783
Fe2CuNiPt4,0.0
Fe2CuO4,0.0
Fe2CuRh3S8,0.048499999999999766
Fe2CuS3,0.0
Fe2Ge,0.0
Fe2GeO4,1.4076999999999997
Fe2GeS4,0.39729999999999954
Fe2GeSe4,0.12460000000000004
Fe2H10Cl6O5,0.5885
Fe2H10S2O11,4.3362
Fe2H11(SeO5)3,0.12369999999999998
Fe2H13C6NCl2O11,2.3056
Fe2H14C8NO12,1.6743000000000001
Fe2H2Se3O10,2.3287
Fe2H4NF6,1.6671
Fe2H4O2F5,1.145
Fe2H54N18Cl4O,2.1142
Fe2H6(SO5)3,2.1469
Fe2H6(SeO4)3,0.0
Fe2HgO4,1.1461
Fe2Mo,0.0
Fe2Mo3O8,0.26730000000000054
Fe2Mo4C,0.0
Fe2Mo4N,0.0
Fe2MoO4,0.0
Fe2MoP12,0.0045999999999999375
Fe2N,0.0
Fe2Ni,0.0
Fe2Ni(PO4)2,3.5216999999999996
Fe2Ni(PO4)2,0.0
Fe2Ni(PO4)3,0.0
Fe2Ni3H4(Se3O10)2,2.0918
Fe2Ni3P6WO24,0.9977999999999998
Fe2Ni3Sb(PO4)6,0.0
Fe2NiB,0.0
Fe2NiC,0.0
Fe2NiN2,0.0
Fe2NiO4,0.0
Fe2NiO4,1.3615999999999997
Fe2NiO4,1.1453000000000002
Fe2NiO4,1.3195999999999999
Fe2NiP,0.0
Fe2NiSe4,0.0
Fe2O2F3,0.0
Fe2O2F5,0.8155999999999999
Fe2O3,0.009500000000000064
Fe2O3,1.6876999999999998
Fe2O3,1.0606
Fe2O3,1.3134000000000001
Fe2O3,1.5673
Fe2O3,0.0
Fe2O3,1.3094999999999999
Fe2O3,1.5251000000000001
Fe2O3,1.3902
Fe2O3,0.5861000000000001
Fe2O3,1.5103
Fe2O3,1.3464999999999998
Fe2O3F,0.0
Fe2OF2,2.1602
Fe2OF3,1.1302999999999999
Fe2OF3,0.17920000000000003
Fe2OF3,0.7917000000000001
Fe2OF3,1.6619
Fe2OF3,0.5954000000000002
Fe2OF3,1.1968
Fe2OF3,1.3398
Fe2OF3,1.4915
Fe2OF3,1.3483
Fe2OF3,0.0
Fe2OF3,1.6847
Fe2OF3,1.6320000000000001
Fe2OF3,1.3708
Fe2OF3,1.3111
Fe2OF3,1.1962
Fe2OF3,1.4906000000000001
Fe2OF3,1.1914000000000002
Fe2OF3,1.1933999999999998
Fe2P,0.0
Fe2P12W,0.0
Fe2P2H4NO8,1.8033000000000001
Fe2P2H4NO8,2.4177999999999997
Fe2P2H4O9,4.2158999999999995
Fe2P2H9NO11,2.4546
Fe2P2O7,0.7385000000000002
Fe2P2O7,3.7687
Fe2P2O7,1.2108000000000003
Fe2P2O9,0.0
Fe2P3(HO3)3,0.0
Fe2P3(O3F)3,2.5033
Fe2P3O10,0.38339999999999996
Fe2P4Pb3O16,2.1666
Fe2P4Pb3O17,0.133
Fe2P5O16,0.0
Fe2PCO7,1.8151
Fe2PClO4,3.8524000000000003
Fe2PClO4,0.5959999999999999
Fe2PH2CO7,3.1702
Fe2PH2CO7,2.3945
Fe2PHO3F2,1.4983000000000002
Fe2PO4F,0.2855000000000003
Fe2PO5,0.0
Fe2PO5,0.8502999999999998
Fe2Pb(SeO3)4,1.8645
Fe2Pb3F12,2.838
Fe2Pb3WO9,0.0
Fe2Pd,0.0
Fe2PtRh,0.0
Fe2Re3,0.0
Fe2Re5As12,0.0
Fe2RhS4,0.0
Fe2S3,0.0
Fe2Sb(PO4)3,1.8952
Fe2Sb3PbO8,1.1471999999999998
Fe2SbTe3,0.0
Fe2Si,0.0
Fe2Si2BiO9,0.024799999999999933
Fe2Si2BiO9,0.3387000000000002
Fe2Si2SbO9,0.011600000000000055
Fe2Si2SbO9,0.1621999999999999
Fe2Si5,0.0
Fe2SiNi,0.0
Fe2SiO4,2.7611000000000003
Fe2SiO4,2.7099
Fe2SiO4,2.7086000000000006
Fe2SiO4,1.0886000000000005
Fe2SiP,0.0
Fe2Sn(PO4)3,0.05940000000000012
Fe2Te2(PbO4)3,1.7540000000000004
Fe2Te4BrClO10,1.9778000000000002
Fe2Te4BrClO10,0.0
Fe2Te4ClO12,0.0
Fe2Te4H3ClO12,1.5179000000000005
Fe2Te4HClO12,0.1149
Fe2Te4O11,1.4736999999999996
Fe2TeO5,1.6448999999999998
Fe2TeO6,0.0
Fe2TeSe,0.0
Fe2W,0.0
Fe2WO6,0.0
Fe3(AsO4)4,0.0
Fe3(CuS5)2,0.0
Fe3(GeO4)2,0.0
Fe3(Ni10B3)2,0.0
Fe3(O2F)2,0.0
Fe3(O2F)2,0.29800000000000004
Fe3(OF)2,1.0429
Fe3(OF)2,0.5985999999999998
Fe3(OF)2,1.4501000000000002
Fe3(OF)2,0.5709
Fe3(OF2)2,1.3893
Fe3(OF2)2,1.3659
Fe3(OF2)2,1.2227000000000001
Fe3(OF2)2,0.8904999999999998
Fe3(OF2)2,0.9697
Fe3(OF2)2,0.8998999999999999
Fe3(OF2)2,0.5987
Fe3(OF2)2,1.3468
Fe3(OF2)2,1.3439
Fe3(OF2)2,0.8733
Fe3(OF2)2,1.2595
Fe3(OF2)2,0.5979000000000001
Fe3(OF2)2,0.8966000000000001
Fe3(OF2)2,1.1913
Fe3(OF2)2,0.26469999999999994
Fe3(OF2)2,1.1624999999999999
Fe3(OF3)2,0.1911
Fe3(P2O7)2,0.015099999999999891
Fe3(P2O7)2,0.8609
Fe3(P2O7)2,1.8996
Fe3(P3O10)2,0.10710000000000003
Fe3(PO4)2,3.4932
Fe3(PO4)2,3.2323999999999997
Fe3(PO4)2,3.0130000000000003
Fe3(PO4)4,0.014200000000000101
Fe3(PO4)4,0.0
Fe3(PO4)4,0.0566
Fe3(PO5)2,0.17959999999999998
Fe3(PO5)2,0.4879
Fe3(Se2S)2,0.5030000000000001
Fe3(SiO4)2,1.4844999999999997
Fe3(SiO4)2,1.4124999999999999
Fe3(SnS4)2,0.0
Fe3(TeO3)4,1.7774
Fe3(WN2)4,0.0
Fe31Si5O48,1.1204999999999998
Fe32O35,0.5078999999999998
Fe35SiO48,0.5619000000000001
Fe38O39,1.5470000000000002
Fe39Si3O56,0.7038000000000002
Fe3Ag(SnS4)2,0.0
Fe3Ag7(P2O7)4,1.3001999999999998
Fe3Au,0.0
Fe3B,0.0
Fe3B11HO20,0.32260000000000044
Fe3B7BrO13,3.6767999999999996
Fe3B7BrO13,3.4903000000000004
Fe3B7ClO13,2.8149000000000006
Fe3B7IO13,3.0026
Fe3B7IO13,2.9004999999999996
Fe3B7IO13,3.4046000000000003
Fe3BO5,1.0194999999999994
Fe3BO5,0.020500000000000185
Fe3BO5,0.5068999999999999
Fe3BO6,1.4383
Fe3C,0.0
Fe3C8(Br2N)8,0.9686999999999999
Fe3Co,0.0
Fe3Co(BiO3)4,0.7248000000000001
Fe3Co(PO4)4,0.5542
Fe3Co2Cu(PO4)6,0.18619999999999992
Fe3Co2Ni(PO4)6,0.0
Fe3Co2P6WO24,0.006400000000000183
Fe3Co2Sb(PO4)6,0.0034000000000000696
Fe3Co2Sn(PO4)6,0.0
Fe3Co2Te(PO4)6,0.05600000000000005
Fe3Co3(SbO8)2,0.0
Fe3Co3(TeO8)2,0.0
Fe3Co3B2,0.0
Fe3Co3Ge2,0.0
Fe3Co3Si2,0.0
Fe3Co5O16,0.1269
Fe3Co5O16,0.0
Fe3Co7O20,0.0
Fe3CoBi4(AsO6)4,0.0
Fe3CoCu2(PO4)6,0.0
Fe3CoN,0.0
Fe3CoNi2(PO4)6,0.0
Fe3CoSb2(PO4)6,0.6751999999999998
Fe3Cu,0.0
Fe3Cu(PO4)4,0.0
Fe3Cu(SnS4)2,0.0
Fe3Cu2Sb(PO4)6,0.0
Fe3Cu2Sn(PO4)6,0.0
Fe3Cu2Te(PO4)6,0.0
Fe3CuAs2,0.0
Fe3CuNi2(PO4)6,0.0
Fe3Ge,0.0
Fe3Ge2,0.0
Fe3H10S2NO14,1.9047
Fe3H16C4(SeN)4,0.0
Fe3H28(S2O15)2,1.0282
Fe3H4(OF4)2,0.9575
Fe3H4(S2O9)2,1.6592000000000002
Fe3H9S2O15,1.9904000000000002
Fe3H9S2O15,1.9552999999999998
Fe3Mo,0.0
Fe3Mo3C,0.0
Fe3Mo3N,0.0
Fe3Mo5N8,0.0
Fe3Mo6PdN2,0.0
Fe3Mo6PtN2,0.0
Fe3Mo6RhN2,0.0
Fe3N,0.0
Fe3Ni,0.0
Fe3Ni(Mo3N)2,0.0
Fe3Ni(PO4)4,0.0
Fe3Ni2,0.0
Fe3Ni2P6WO24,2.1212999999999997
Fe3Ni2Sb(PO4)6,2.1182000000000007
Fe3Ni2Sn(PO4)6,0.0
Fe3Ni2Te(PO4)6,0.07499999999999973
Fe3Ni3B2,0.0
Fe3Ni3Ge2,0.0
Fe3Ni3P2,0.0
Fe3Ni3Pt2,0.0
Fe3NiAs4,0.0
Fe3NiAs8,0.0
Fe3NiN,0.0
Fe3NiP2,0.0
Fe3NiP4,0.0
Fe3NiSb2(PO4)6,0.0
Fe3NiSb8,0.0
Fe3NiSn2(PO4)6,0.058499999999999996
Fe3O4,1.0689000000000002
Fe3O4,0.0
Fe3O4,0.32509999999999994
Fe3O4,1.0663
Fe3O4,0.9056000000000002
Fe3O4,0.08950000000000014
Fe3O4,0.7398999999999996
Fe3O4,0.637
Fe3O4,0.7769999999999997
Fe3O4,0.12209999999999965
Fe3O4,1.0229000000000004
Fe3O4,1.2089999999999996
Fe3O4,0.5739999999999998
Fe3O4,0.24350000000000005
Fe3O4,0.3799000000000001
Fe3O4,0.9257000000000004
Fe3O4,0.3011999999999997
Fe3O4,0.0019000000000000128
Fe3O4,0.03200000000000003
Fe3O4,0.02010000000000023
Fe3O5F,0.0
Fe3OF5,1.3139
Fe3OF5,0.2558
Fe3OF5,1.4096
Fe3OF5,1.7313
Fe3OF5,0.0
Fe3OF5,1.6254
Fe3OF5,1.1912
Fe3OF5,1.1961
Fe3OF5,0.595
Fe3OF5,0.25750000000000006
Fe3OF5,0.0008000000000001339
Fe3OF5,1.7289
Fe3OF5,1.5144
Fe3OF5,1.1966
Fe3OF5,1.1875999999999998
Fe3OF5,1.4469
Fe3OF5,1.5957
Fe3OF7,2.5709
Fe3OF7,2.0533
Fe3P,0.0
Fe3P2(H2O3)4,3.7133000000000003
Fe3P2(HO)16,2.0659
Fe3P2(HO5)2,1.7308
Fe3P2H3O11,1.6678
Fe3P2H6O11,3.5808
Fe3P2O9,0.12950000000000017
Fe3P3O11,1.3814
Fe3P3O13,0.027199999999999974
Fe3P3PbO13,0.5588000000000002
Fe3P4(H3O5)4,2.4005
Fe3P4H12(NO8)2,3.8429
Fe3P4H8NO12,1.7257
Fe3P4O15,0.0
Fe3P4PbO14,0.0
Fe3P6H14(NO8)3,0.0
Fe3P6WO24,0.0837
Fe3PH6PbSO14,1.0991
Fe3PO7,1.7147
Fe3Pb4BrO8,1.2332999999999998
Fe3Pb4ClO8,1.1204999999999998
Fe3Pb5F19,2.9969
Fe3Pb8F24,1.6795999999999998