formula,band_gap
Li2CrPO4F,2.4355
Li2CrPO4F,1.9863999999999997
Li2CrPO5,1.0107999999999997
Li2CrPO6,0.8508
Li2CrS3,0.0
Li2CrS4,0.0
Li2CrSi3O8,3.1126000000000005
Li2CrSi4O11,0.6668000000000001
Li2CrSi4O11,0.5257999999999998
Li2CrSi7O16,2.2089
Li2CrSiO4,1.0747000000000004
Li2CrSiO4,3.0789
Li2CrSiO4,2.448
Li2CrSiO4,1.1657000000000002
Li2CrSiO4,1.2517
Li2CrSiO4,2.6298000000000004
Li2CrSiO4,1.7395999999999998
Li2CrSiO4,1.3058999999999994
Li2CrSiO4,1.5289000000000001
Li2CrSiO5,0.22270000000000012
Li2CrSn(PO4)2,2.0591999999999997
Li2CrTeO6,0.0
Li2CrWO6,0.5032000000000001
Li2Cu(HO)4,0.0
Li2Cu(PO3)3,1.1081000000000003
Li2Cu(PO3)3,1.1791999999999998
Li2Cu(PO3)4,0.6202000000000001
Li2Cu(PO3)4,0.0
Li2Cu(PO3)4,0.8002999999999998
Li2Cu(PO3)4,0.21150000000000002
Li2Cu(PO3)4,0.869
Li2Cu(Si2O5)2,0.6419999999999999
Li2Cu(Si2O5)2,0.9597000000000002
Li2Cu(Si2O5)2,0.7930999999999999
Li2Cu(Si2O5)2,0.3051999999999997
Li2Cu(SiO3)2,0.08719999999999972
Li2Cu(WO4)2,0.42369999999999974
Li2Cu2(SO4)3,0.0
Li2Cu2(Si2O5)3,2.4507999999999996
Li2Cu2C2O7,0.0
Li2Cu2F5,0.0
Li2Cu2F5,0.07329999999999992
Li2Cu2F7,0.005400000000000071
Li2Cu2F7,0.032200000000000006
Li2Cu2F7,0.0
Li2Cu2F7,0.038999999999999924
Li2Cu2P4O13,0.0
Li2Cu2S3,0.0
Li2Cu2Si2O7,0.1862999999999997
Li2Cu2Si4O11,0.0
Li2Cu2Si5O13,0.4739
Li2Cu2Si8O19,0.26370000000000005
Li2Cu2Si8O19,0.0
Li2Cu2TeO6,0.0
Li2Cu3(CO3)3,0.0
Li2Cu3(CO3)3,0.058499999999999996
Li2Cu3(CO3)3,0.008000000000000007
Li2Cu3(P2O7)2,0.17310000000000025
Li2Cu3(P2O7)2,0.0
Li2Cu3(Se2O7)2,0.6886000000000001
Li2Cu3F11,0.0
Li2Cu3F7,0.0
Li2Cu3F8,0.0
Li2Cu3F8,0.11539999999999995
Li2Cu3F8,0.29969999999999997
Li2Cu3F9,0.414
Li2Cu3Ge,0.0
Li2Cu4S3,0.11639999999999961
Li2Cu4S3,0.6691000000000003
Li2Cu4S3,0.12699999999999978
Li2Cu4S3,0.7526000000000002
Li2Cu4S3,0.004600000000000826
Li2Cu4Si4O13,0.0
Li2Cu5(PO4)4,0.0
Li2Cu5(Si2O7)2,0.21860000000000035
Li2Cu5F12,0.0
Li2Cu7F16,0.0
Li2CuAs,0.0
Li2CuAsCO7,0.12069999999999992
Li2CuAsO4,0.9085000000000001
Li2CuAsO4,1.0013
Li2CuB4(PbO5)2,0.9895
Li2CuBi(PO4)2,0.29210000000000047
Li2CuBiO4,0.0
Li2CuCO4,0.06919999999999993
Li2CuCSO7,0.12809999999999988
Li2CuF4,0.0
Li2CuF4,0.3313999999999999
Li2CuF4,0.32539999999999997
Li2CuF4,0.9750000000000001
Li2CuF5,0.0
Li2CuF5,6.3228
Li2CuF5,0.11970000000000014
Li2CuF5,0.5961000000000003
Li2CuF6,0.0
Li2CuGe,0.0
Li2CuH14C4(N3O4)2,3.7314000000000003
Li2CuN,0.32399999999999984
Li2CuNi(PO4)2,0.0
Li2CuNiO4,0.0
Li2CuO2,0.0
Li2CuP,0.0
Li2CuP2O7,0.6390000000000002
Li2CuP2O7,0.0
Li2CuP2O7,0.4907999999999997
Li2CuP3(HO5)2,1.6397
Li2CuP3H8O13,1.6309000000000005
Li2CuP6H20C2(N3O11)2,0.4524
Li2CuPCO7,0.0
Li2CuPO4,1.7827000000000002
Li2CuPO4,1.3886000000000003
Li2CuPO4,1.2059999999999995
Li2CuPO4,1.4867000000000004
Li2CuPO4,1.6655999999999995
Li2CuPO4,1.9750000000000005
Li2CuPO4,1.1851000000000003
Li2CuPO4,0.9028999999999998
Li2CuPO4,1.5054000000000003
Li2CuPO4,0.9052000000000007
Li2CuPO4,1.8063000000000002
Li2CuPO4,0.9036999999999997
Li2CuPO4,0.6029999999999998
Li2CuPO4,0.9082999999999997
Li2CuPO4,1.327
Li2CuPO4,0.9029999999999996
Li2CuS2,0.0
Li2CuSb,0.4535
Li2CuSb(PO4)2,0.8771999999999993
Li2CuSbO5,0.0
Li2CuSiO4,0.0
Li2CuSiO4,0.14150000000000018
Li2CuSiO4,0.03789999999999982
Li2CuSn,0.0
Li2CuSn2,0.0
Li2CuSnO4,0.0
Li2DyIn,0.0
Li2DyPCO7,4.784800000000001
Li2DyTl,0.0
Li2ErIn,0.0
Li2ErPCO7,4.8579
Li2ErTl,0.0
Li2Eu5O8,0.0
Li2Eu5Sn7,0.0
Li2EuGe,0.0
Li2EuGeS4,0.20210000000000017
Li2EuIn,0.0
Li2EuSiO4,0.04330000000000034
Li2EuSn,0.0
Li2Fe(BO2)5,3.0402
Li2Fe(BO3)2,0.0
Li2Fe(CO3)2,4.114199999999999
Li2Fe(CO3)2,3.4101
Li2Fe(CO3)2,3.1128
Li2Fe(CO3)2,3.9379000000000004
Li2Fe(CO3)2,3.6445
Li2Fe(CoO3)2,1.025
Li2Fe(CoO3)2,0.9249
Li2Fe(CoO3)2,0.5655000000000001
Li2Fe(CoO3)2,0.6487999999999998
Li2Fe(CoO3)2,0.9612
Li2Fe(CoO3)2,0.6593
Li2Fe(CoO3)2,0.0
Li2Fe(CuO3)2,0.0
Li2Fe(NiO3)2,0.0
Li2Fe(PO3)4,4.1899999999999995
Li2Fe(PO3)4,3.9524
Li2Fe(PO3)4,4.83
Li2Fe(PO3)4,4.3505
Li2Fe(PO3)4,4.245900000000001
Li2Fe(PO3)4,3.7503
Li2Fe(PO3)5,2.137
Li2Fe(PO3)5,1.3418999999999999
Li2Fe(PO3)8,0.0
Li2Fe(PO4)2,0.0
Li2Fe(PS3)2,0.0
Li2Fe(SO4)2,4.2848
Li2Fe(SO4)2,4.4041999999999994
Li2Fe(Si2O5)2,3.5622000000000007
Li2Fe(Si2O5)2,3.7780000000000005
Li2Fe(Si2O5)2,3.1715
Li2Fe(Si2O5)2,3.3375
Li2Fe(Si2O5)3,0.2845000000000001
Li2Fe(Si2O5)3,0.0
Li2Fe(Si2O5)3,0.33240000000000003
Li2Fe(SiO3)2,4.6142
Li2Fe(SiO3)2,3.2217
Li2Fe(SiO3)2,2.8795
Li2Fe(SiO3)2,3.3924999999999996
Li2Fe(SiO3)2,2.6240000000000006
Li2Fe(SiO3)2,2.9174
Li2Fe(WO4)2,3.3499999999999996
Li2Fe(WO4)2,3.5503
Li2Fe12P7,0.0
Li2Fe2(CO3)3,3.9898
Li2Fe2(CO3)3,3.5757
Li2Fe2(CO3)3,3.4539
Li2Fe2(CO3)3,3.7322
Li2Fe2(CO3)3,3.4756
Li2Fe2(CO3)3,2.9344
Li2Fe2(MoO4)3,2.5049
Li2Fe2(MoO4)3,2.6563999999999997
Li2Fe2(PO4)3,0.0
Li2Fe2(PO4)3,0.0018999999999999573
Li2Fe2(SO4)3,4.174300000000001
Li2Fe2(SO4)3,4.2958
Li2Fe2(SO4)3,4.1485
Li2Fe2(SiO3)3,2.8911
Li2Fe2(SiO3)3,3.3072999999999997
Li2Fe2(SiO3)3,3.0875
Li2Fe2(SiO3)3,2.9576000000000002
Li2Fe2(SiO3)3,2.5827000000000004
Li2Fe2(WO4)3,3.4384
Li2Fe2B2O7,1.9294
Li2Fe2C2O7,2.6587999999999994
Li2Fe2C2O7,3.1587
Li2Fe2Co3O10,0.0
Li2Fe2CoO6,0.11050000000000004
Li2Fe2Cu(PO4)3,0.10000000000000053
Li2Fe2CuO6,0.0
Li2Fe2Ni(PO4)3,1.4032
Li2Fe2NiO6,0.0
Li2Fe2OF4,2.2497
Li2Fe2OF6,2.0287
Li2Fe2P2O8F,0.6709
Li2Fe2P2O9,1.3724999999999998
Li2Fe2P2O9F,0.006099999999999994
Li2Fe2P4H3O16,0.0
Li2Fe2S3,0.0
Li2Fe2S3,0.05370000000000008
Li2Fe2SbO6,0.6865999999999999
Li2Fe2Si2O7,3.4796
Li2Fe2Si2O7,3.5586
Li2Fe2Si2O7,2.9151999999999996
Li2Fe2Si2O7,3.1288000000000005
Li2Fe2Si2O7,3.1291999999999995
Li2Fe2Si2O9,0.031700000000000284
Li2Fe2Si2O9,0.01739999999999986
Li2Fe2Si3O10,2.3253
Li2Fe2Si3O10,2.619
Li2Fe2Si4O11,3.4646
Li2Fe2Si4O11,3.4827000000000004
Li2Fe2Si5O13,3.0925999999999996
Li2Fe2Si8O19,3.2862999999999998
Li2Fe2Si8O19,3.0361
Li2Fe2Si8O19,3.5081000000000007
Li2Fe2SiO6,2.1580000000000004
Li2Fe2SiO6,2.1654
Li2Fe2SnO6,1.6914000000000002
Li2Fe3(CoO4)3,0.0
Li2Fe3(MoO4)3,0.0
Li2Fe3(P2O7)2,3.9223999999999997
Li2Fe3(P2O7)2,3.4650000000000003
Li2Fe3(P2O7)2,2.1669
Li2Fe3(P2O7)2,3.4071
Li2Fe3(P2O7)2,3.7628999999999997
Li2Fe3(PO4)3,1.0998999999999999
Li2Fe3(Si3O8)2,2.5894
Li2Fe3(SiO4)2,2.2295999999999996
Li2Fe3BiO8,1.142
Li2Fe3BiO8,0.0
Li2Fe3Co5O16,0.0
Li2Fe3Co7O20,0.0
Li2Fe3CoO8,0.0
Li2Fe3CoO8,0.0049000000000001265
Li2Fe3CuO8,0.0
Li2Fe3CuO8,0.0622999999999998
Li2Fe3F8,3.3956999999999997
Li2Fe3F8,1.7819
Li2Fe3F8,3.1268
Li2Fe3F8,3.2535
Li2Fe3F8,3.6141
Li2Fe3F8,2.9193000000000002
Li2Fe3F8,3.0509000000000004
Li2Fe3F8,3.2095
Li2Fe3F8,2.9908
Li2Fe3F8,2.9172000000000002
Li2Fe3NiO8,0.0
Li2Fe3O3F5,1.7338
Li2Fe3OF6,1.9706
Li2Fe3P4(HO4)4,4.1444
Li2Fe3P5O18,1.6179999999999999
Li2Fe3P9O28,2.4362999999999997
Li2Fe3SbO8,1.3362000000000003
Li2Fe3SbO8,1.4002
Li2Fe3SbO8,2.0734
Li2Fe3Si3O10,3.0276000000000005
Li2Fe3SnO8,0.0
Li2Fe3SnO8,0.22799999999999976
Li2Fe3SnO8,0.16970000000000018
Li2Fe3SnO8,0.10950000000000015
Li2Fe3TeO8,1.3885999999999998
Li2Fe3TeO8,0.8479000000000001
Li2Fe3TeO8,0.6734999999999998
Li2Fe3TeO8,0.0
Li2Fe3TeO8,0.06780000000000008
Li2Fe3WO8,1.6318000000000001
Li2Fe3WO8,1.0394999999999999
Li2Fe3WO8,0.0
Li2Fe3WO8,0.9396
Li2Fe4O3F8,1.9451
Li2Fe4OF8,2.2071
Li2Fe4OF8,3.6288
Li2Fe4OF8,3.0936000000000003
Li2Fe4Si4O13,2.9365
Li2Fe5(PO4)4,3.5627999999999997
Li2Fe5(Si2O7)2,2.8575000000000004
Li2Fe5B3O13,1.4087
Li2Fe5F17,2.9095
Li2Fe5O5F7,1.1635
Li2Fe5Si5O16,1.8341000000000003
Li2Fe5Si5O16,3.1753000000000005
Li2Fe7(OF2)4,1.6905999999999999
Li2FeAsCO7,1.8906
Li2FeBAsO7,0.2979
Li2FeBO4,2.7779999999999996
Li2FeBO4,1.9082000000000001
Li2FeBO4,2.8278
Li2FeBO4,1.1006
Li2FeBO4,2.1735
Li2FeBO4,2.4480000000000004
Li2FeBO4,2.3452
Li2FeBO4,2.1685
Li2FeBO4,1.9172000000000002
Li2FeBO4,2.1638
Li2FeBO4,2.4386
Li2FeBO4,1.9074
Li2FeBO4,2.4344
Li2FeBr4,0.0
Li2FeBr4,0.029099999999999904
Li2FeCO4,2.3439
Li2FeCO5,0.03269999999999995
Li2FeCSO7,4.3530999999999995
Li2FeCSO7,3.9162999999999997
Li2FeCl4,0.26670000000000016
Li2FeCl4,0.03049999999999997
Li2FeCl4,0.006699999999999928
Li2FeCo3O8,0.0
Li2FeCo3O8,0.7058
Li2FeCo3O8,0.49549999999999983
Li2FeCo3O8,0.3237000000000001
Li2FeCo3O8,0.42969999999999997
Li2FeCo9O20,0.008199999999999985
Li2FeCoO4,0.0
Li2FeCoO4,0.5278999999999998
Li2FeCoO4,0.8265999999999996
Li2FeCoO4,0.28200000000000003
Li2FeCu(PO4)2,0.0
Li2FeCuO4,0.0
Li2FeF4,3.2415
Li2FeF4,3.8539
Li2FeF4,3.6837
Li2FeF4,3.3475
Li2FeF4,3.5016999999999996
Li2FeF4,3.3952
Li2FeF4,3.6802
Li2FeF4,3.6637000000000004
Li2FeF4,3.833
Li2FeF4,3.6065
Li2FeF4,3.2681999999999998
Li2FeF4,3.7132
Li2FeF4,3.2672999999999996
Li2FeF4,3.4779999999999998
Li2FeF4,3.0891
Li2FeF4,3.3292
Li2FeF4,3.3555
Li2FeF4,4.8828
Li2FeF4,3.3033
Li2FeF4,2.565
Li2FeF4,3.8205
Li2FeF4,3.5932
Li2FeF4,4.6607
Li2FeF4,2.6491
Li2FeF5,3.4609
Li2FeF5,3.7173
Li2FeF5,3.1132
Li2FeF5,3.8394
Li2FeF5,1.6833
Li2FeF5,2.7262000000000004
Li2FeF5,3.66
Li2FeF5,2.8504
Li2FeF5,3.4141000000000004
Li2FeF6,0.31289999999999996
Li2FeF6,0.0
Li2FeF6,0.1775000000000002
Li2FeGeO4,2.1565
Li2FeGeS4,0.0
Li2FeH12(SO7)2,3.9178
Li2FeH4(SO5)2,4.236700000000001
Li2FeH8(SO6)2,3.8098999999999994
Li2FeN,0.0
Li2FeNi(PO4)2,3.0236
Li2FeNi3O8,0.0
Li2FeNi3O8,0.08000000000000007
Li2FeNiO4,0.0
Li2FeO2,3.1408000000000005
Li2FeO2,3.0405999999999995
Li2FeO2,2.2850999999999995
Li2FeO2,1.7893000000000001
Li2FeO2F,1.6678
Li2FeO2F,1.4225000000000003
Li2FeO2F,2.1313000000000004
Li2FeO2F,1.6863000000000001
Li2FeO2F,1.6758000000000002
Li2FeO2F,1.9849
Li2FeO2F,1.3967999999999998
Li2FeO2F,1.9398000000000002
Li2FeO2F,1.4184
Li2FeO2F,1.9422
Li2FeO3,0.06520000000000015
Li2FeO3,0.0
Li2FeO3,0.0965999999999998
Li2FeO3,1.0267
Li2FeOF3,1.9963
Li2FeOF3,2.1822000000000004
Li2FeOF3,2.2428
Li2FeOF3,1.9802000000000002
Li2FeOF3,1.9609
Li2FeP2HO8,1.9018
Li2FeP2HO8,1.9142000000000001
Li2FeP2O7,0.11519999999999997
Li2FeP2O7,3.9467
Li2FeP2O7,4.3859
Li2FeP2O7,4.3546
Li2FeP2O7,4.4589
Li2FeP2O7,4.0783
Li2FeP2O7,3.9059
Li2FeP2O7,4.1571
Li2FeP2O7,3.8745000000000003
Li2FeP2O7,4.103
Li2FeP2O7,4.2871999999999995
Li2FeP2O7,4.678000000000001
Li2FeP2O7,4.2488
Li2FeP2O7,3.7642
Li2FeP2O7,4.350899999999999
Li2FeP2O7,3.6444
Li2FeP2O7,0.0895999999999999
Li2FeP2O7,3.9051
Li2FeP2O7,3.6667999999999994
Li2FeP2O7,4.4094999999999995
Li2FeP2O7,3.4639999999999995
Li2FeP2O7,3.9628
Li2FeP2O7,3.9852
Li2FeP3O10,2.7898
Li2FeP4(H4O5)4,2.6388
Li2FeP4O13,0.041800000000000004
Li2FePCO7,1.7891
Li2FePCO7,2.1712
Li2FePCO7,1.911
Li2FePCO7,0.5344
Li2FePCO7,2.1853
Li2FePCO7,2.1812
Li2FePCO7,2.0804
Li2FePCO7,2.3411999999999997
Li2FePCO7,2.1595
Li2FePCO7,2.2695999999999996
Li2FePCO7,1.6345999999999998
Li2FePCO7,2.4417999999999997
Li2FePCO7,2.4473
Li2FePCO7,2.1799
Li2FePCO7,2.4693
Li2FePCO7,2.4902
Li2FePCO7,2.175
Li2FePCO7,2.449
Li2FePHO5,3.7864
Li2FePHO5,3.8225
Li2FePHO5,3.3896
Li2FePO4F,4.2299
Li2FePO4F,3.709
Li2FePO4F,3.431
Li2FePO4F,3.7155
Li2FePO5,2.1583
Li2FePO5,2.3612
Li2FePO5,1.8923
Li2FePO5,1.626
Li2FeS2,0.0
Li2FeS2,0.16339999999999977
Li2FeSi3O8,3.0810000000000004
Li2FeSi3O8,2.6144
Li2FeSi3O8,2.7788000000000004
Li2FeSi3O8,3.4226
Li2FeSi4O11,0.0
Li2FeSiCO7,0.0
Li2FeSiO4,2.9997
Li2FeSiO4,3.2020999999999997
Li2FeSiO4,3.1235999999999997
Li2FeSiO4,3.3960999999999997
Li2FeSiO4,3.0614
Li2FeSiO4,2.6273
Li2FeSiO4,2.5809999999999995
Li2FeSiO4,2.852
Li2FeSiO4,3.2064000000000004
Li2FeSiO4,2.3447
Li2FeSiO4,2.9237
Li2FeSiO4,3.0894000000000004
Li2FeSiO4,2.7796999999999996
Li2FeSiO4,3.1414999999999997
Li2FeSiO4,2.6104000000000003
Li2FeSiO4,3.4058999999999995
Li2FeSiO4,2.8849
Li2FeSiO4,3.6475
Li2FeSiO4,2.8624
Li2FeSiO4,2.8767
Li2FeSiO5,0.0
Li2FeSiO5,0.26780000000000026
Li2FeSn(PO4)2,2.8562
Li2FeSnO4,1.7179000000000002
Li2FeSnS4,0.0
Li2FeTeO6,0.0
Li2FeWO6,0.08540000000000014
Li2FeWO6,0.0
Li2Ga,0.0
Li2Ga2GeS6,2.1339
Li2Ga3Te6(HO2)12,0.0
Li2Ga7,0.15870000000000006
Li2GaAg,0.0
Li2GaAu,0.0
Li2GaCu3,0.0
Li2GaIr,0.0
Li2GaPd,0.0
Li2GaPt,0.0
Li2GaRh,0.0
Li2GaSb,0.027200000000000557
Li2GaSi,0.0
Li2GdIn,0.0
Li2GdTl,0.0
Li2Ge(S2O7)3,3.7676000000000003
Li2Ge2O5,3.3005000000000004
Li2Ge3O8,0.0
Li2Ge4O9,2.7380999999999998
Li2Ge7O15,2.8062
Li2Ge7O15,2.9882
Li2GeAu,0.0
Li2GeF6,6.0486
Li2GeF6,5.5194
Li2GeN2,2.6889000000000003
Li2GeO3,3.568
Li2GePbS4,2.2649000000000004
Li2GePd,0.0
Li2GePt,0.0
Li2GeSb2Te5,0.03329999999999966
Li2GeTeO6,3.0974000000000004
Li2H10C8O7F18,5.4884
Li2H12C3SN6O7,5.0205
Li2H12C8N2O13,2.4009
Li2H2C6N9Cl,2.9466
Li2H2Pd,0.0
Li2H2Pt,0.0
Li2H2SO5,5.5815
Li2H2SeO5,4.007
Li2H2SeO5,3.9951999999999996
Li2H2SeO5,3.6272
Li2H32Pt(C6O)2,2.7425
Li2H4(SO4)3,5.8773
Li2H6Pt,2.8838
Li2H6PtO6,2.6584
Li2H6PtO6,2.5297
Li2HClO,4.969200000000001
Li2HIO,4.3237
Li2HN,2.0831
Li2HN,2.5998
Li2HN,2.7087
Li2HN,2.4385000000000003
Li2HN,2.5648
Li2HN,2.6355
Li2Hf2O5,4.346
Li2Hf2O5,3.7045000000000003
Li2HfN2,1.9346
Li2HfO3,4.0573
Li2HfO3,4.2346
Li2HfO3,4.4716000000000005
Li2HfO3,4.1189
Li2Hg(PO3)4,2.9522
Li2HgAu,0.0
Li2HgBi,0.0
Li2HgGe,0.0
Li2HgO2,1.1767
Li2HgPd,0.0
Li2HoIn,0.0
Li2HoPCO7,5.0686
Li2HoTl,0.0
Li2IBr,4.1336
Li2In,0.0
Li2In(PO4)2,0.13559999999999994
Li2In2GeS6,2.3229000000000006
Li2In2GeSe6,1.5416
Li2In2SiS6,2.4279999999999995
Li2In2SiSe6,1.8159
Li2InAg,0.0
Li2InAu,0.0
Li2InBi,0.00039999999999995595
Li2InFe(P2O7)2,2.7432
Li2InHg,0.0
Li2InIr,0.0
Li2InP2HO8,3.9210000000000003
Li2InPb,0.0
Li2InPd,0.0
Li2InPt,0.0
Li2InRh,0.0
Li2InSi,0.0
Li2InSn,0.0
Li2IrN2,0.0
Li2IrO3,0.0
Li2La(NO3)5,3.7223
Li2La2Si3,0.0
Li2La2Ti3O10,2.073899999999999
Li2La3Nd(SbO6)2,3.9249
Li2La3Ti2Nb2O13,0.0
Li2LaIn,0.11169999999999991
Li2LaNb6O18,0.0
Li2LaPb,0.0
Li2LaSn,0.0
Li2LaTa2O7,0.0
Li2LaTl,0.0
Li2Lu5B3O13,4.4597
Li2LuIn,9.999999999976694e-05
Li2LuPCO7,4.7648
Li2LuSiO5,0.0
Li2LuUS4,0.0
Li2Mg,0.0
Li2Mg(HN)2,2.3086
Li2Mg10B12Rh19,0.0
Li2Mg11(WO4)12,3.4156
Li2Mg11(WO4)12,3.5836
Li2Mg2(SO4)3,5.6251999999999995
Li2Mg2(WO4)3,4.1589
Li2Mg2MnFe(PO4)4,0.5470999999999999
Li2Mg2Si4O11,4.9276
Li2Mg3Si2,0.20950000000000024
Li2Mg3Ti6O16,3.1479
Li2Mg3Ti6O16,3.288
Li2MgAg,0.0
Li2MgAu,0.0
Li2MgB12(H4O7)4,5.849600000000001
Li2MgB4(H17N3)2,5.4504
Li2MgBi,0.0
Li2MgBr4,3.6846
Li2MgBr4,4.5262
Li2MgCd,0.0
Li2MgCdP2,2.004
Li2MgCl4,5.2764
Li2MgCo13O28,0.7121
Li2MgCo13O28,0.7142
Li2MgCo3O8,0.0
Li2MgCo3O8,0.8152000000000001
Li2MgCr3(SO4)6,0.8518000000000003
Li2MgCr3(SO4)6,0.03279999999999994
Li2MgCr3Se3(SO8)3,0.6478000000000002
Li2MgCu2(SiO3)4,0.4535
Li2MgGa,0.0
Li2MgGe,0.0
Li2MgGeO4,3.7673
Li2MgGeO4,3.8882999999999996
Li2MgH4,3.8467000000000002
Li2MgHg,0.0
Li2MgIn,0.0
Li2MgIr,0.0
Li2MgMn3O8,1.8867
Li2MgMn3O8,1.3888999999999998
Li2MgNi3O8,0.31919999999999993
Li2MgPb,0.0
Li2MgSi,0.14329999999999998
Li2MgSi,0.1983999999999999
Li2MgSi,0.0
Li2MgSi5O12,5.1591
Li2MgSiO4,4.9405
Li2MgSiO4,4.7565
Li2MgSn,0.04749999999999943
Li2MgSn,0.0
Li2MgTi3O8,2.3891999999999998
Li2MgTi3O8,3.2916
Li2MgTi9O20,2.7058
Li2MgTl,0.0
Li2MgZn,0.0
Li2MgZrO4,2.9598000000000004
Li2Mn(BO2)5,0.9682
Li2Mn(BO3)2,1.2393
Li2Mn(BO3)2,1.7429999999999999
Li2Mn(BO3)2,0.2499
Li2Mn(CO3)2,3.0605
Li2Mn(CO3)2,3.5626
Li2Mn(CO3)2,3.6796000000000006
Li2Mn(CoO3)2,1.6124
Li2Mn(CoO3)2,0.5194999999999999
Li2Mn(FeO3)2,0.5646
Li2Mn(NiO3)2,0.3184999999999998
Li2Mn(NiO3)2,0.5479000000000003
Li2Mn(PO3)4,5.0535000000000005
Li2Mn(PO3)4,4.4509
Li2Mn(PO3)4,3.6924
Li2Mn(PO3)4,4.3708
Li2Mn(PO3)4,3.8816000000000006
Li2Mn(PO3)4,3.8417
Li2Mn(PO3)4,4.3697
Li2Mn(PO3)5,1.5914000000000001
Li2Mn(PO4)2,0.6558999999999999
Li2Mn(PO4)2,0.0
Li2Mn(PO4)2,0.7397999999999999
Li2Mn(PO4)2,0.24629999999999996
Li2Mn(PO4)2,0.49449999999999994
Li2Mn(PO4)2,0.6234000000000002
Li2Mn(PO4)2,0.4931000000000001
Li2Mn(PO4)2,0.8966000000000001
Li2Mn(SO4)2,3.5794000000000006
Li2Mn(SO4)2,4.5945
Li2Mn(SeO3)2,3.2053000000000003
Li2Mn(Si2O5)2,3.6361
Li2Mn(Si2O5)2,3.4758999999999993
Li2Mn(Si2O5)2,3.0364
Li2Mn(SiO3)2,3.4173000000000004
Li2Mn(SiO3)2,3.3968
Li2Mn(SiO3)2,3.4868999999999994
Li2Mn(SiO3)2,3.1693000000000002
Li2Mn(SiO3)2,2.6073999999999997
Li2Mn(SiO3)2,2.7600000000000002
Li2Mn(SiO3)2,3.2277999999999993
Li2Mn(SiO3)2,3.0724000000000005
Li2Mn15O32,0.0
Li2Mn2(CO3)3,4.0204
Li2Mn2(PO4)3,0.0
Li2Mn2(PO4)3,0.8459
Li2Mn2(PO4)3,0.9609
Li2Mn2(SO4)3,4.4239
Li2Mn2(SO4)3,4.3938
Li2Mn2(SO4)3,4.6747000000000005
Li2Mn2(Si2O5)3,3.2081999999999997
Li2Mn2(SiO3)3,3.296
Li2Mn2(SiO3)3,2.8280000000000003
Li2Mn2(SiO3)3,2.9985
Li2Mn2(SiO3)3,3.0765000000000002
Li2Mn2(SiO3)3,3.0971
Li2Mn2C2O7,1.9123
Li2Mn2Co(PO4)3,0.4900000000000002
Li2Mn2CoO6,0.7765
Li2Mn2CoO6,0.5897000000000001
Li2Mn2CoO8,0.0032000000000000917
Li2Mn2Cr3O12,1.7395999999999998
Li2Mn2CrO6,1.2466
Li2Mn2CrO6,1.0253999999999999
Li2Mn2CrO6,0.0
Li2Mn2CuO6,0.23470000000000013
Li2Mn2F7,0.1708
Li2Mn2F7,0.25980000000000003
Li2Mn2F7,0.5693
Li2Mn2F7,0.8603000000000001
Li2Mn2F7,1.0135
Li2Mn2F7,0.11670000000000003
Li2Mn2F7,0.252
Li2Mn2F7,0.12080000000000002
Li2Mn2Fe(PO4)3,0.5299
Li2Mn2FeO6,1.2011
Li2Mn2FeO6,1.2088
Li2Mn2FeO6,0.0
Li2Mn2FeO6,0.011800000000000033
Li2Mn2Ni(PO4)3,0.31689999999999996
Li2Mn2NiO6,1.2426
Li2Mn2NiO6,0.32420000000000027
Li2Mn2O3,0.2481
Li2Mn2OF4,1.6239
Li2Mn2OF6,0.5158
Li2Mn2OF6,1.2127000000000001
Li2Mn2OF6,1.2918
Li2Mn2OF6,1.3014999999999999
Li2Mn2OF6,1.3434000000000001
Li2Mn2P2(H4O5)3,2.0708
Li2Mn2P2(H4O5)3,1.3793
Li2Mn2P2(H4O5)3,1.2195999999999998
Li2Mn2P2O7F2,2.8465999999999996
Li2Mn2P2O9,0.24370000000000003
Li2Mn2P2O9,0.6033
Li2Mn2P3(HO4)3,4.0012
Li2Mn2P4H3O16,0.8808999999999999
Li2Mn2P4H3O16,0.0
Li2Mn2P4H6O17,0.8574
Li2Mn2SbO6,0.9462000000000006
Li2Mn2SbO6,0.0
Li2Mn2Si2O7,2.5963
Li2Mn2Si2O7,2.3534000000000006
Li2Mn2Si2O7,3.0250000000000004
Li2Mn2Si2O9,0.8885999999999998
Li2Mn2Si3O10,0.9698
Li2Mn2Si4O11,1.088
Li2Mn2Si4O11,3.1816999999999998
Li2Mn2Si5O13,3.0396
Li2Mn2SnO6,1.0102000000000002
Li2Mn2V3O12,0.056900000000000006
Li2Mn3(BO3)3,0.03750000000000009
Li2Mn3(BO3)3,0.022199999999999998
Li2Mn3(BO3)3,0.0
Li2Mn3(BO3)3,0.4947999999999999
Li2Mn3(BO3)3,0.5482999999999998
Li2Mn3(BO3)3,0.2985
Li2Mn3(BO3)3,0.6359999999999997
Li2Mn3(BO3)3,0.24729999999999985
Li2Mn3(BO3)3,0.6674000000000002
Li2Mn3(BO3)3,0.7908000000000002
Li2Mn3(BO3)3,3.4546
Li2Mn3(BO3)4,0.49759999999999993
Li2Mn3(CoO4)3,0.7852999999999999
Li2Mn3(FeO4)3,0.10449999999999982
Li2Mn3(P2O7)2,3.7499
Li2Mn3(P2O7)2,3.5737000000000005
Li2Mn3(P2O7)2,3.4753
Li2Mn3(P2O7)2,2.3814
Li2Mn3(PO4)3,0.0
Li2Mn3(PO4)4,0.0
Li2Mn3(SeO3)4,2.3399
Li2Mn3(Si3O8)2,2.8647
Li2Mn3(SiO3)4,0.9432
Li2Mn3(SiO4)2,2.0446999999999997
Li2Mn3CoO8,0.0
Li2Mn3CoO8,0.3865000000000003
Li2Mn3CoO8,0.49239999999999995
Li2Mn3CoO8,0.2621000000000002
Li2Mn3CoO8,1.0346000000000002
Li2Mn3CoO8,0.2625000000000002
Li2Mn3Cr3O12,0.0927
Li2Mn3CrO8,0.0
Li2Mn3CrO8,0.5217
Li2Mn3CuO8,0.0
Li2Mn3CuO8,0.1080000000000001
Li2Mn3CuO8,0.13439999999999985
Li2Mn3F10,0.0
Li2Mn3F8,3.1397999999999997
Li2Mn3F8,2.8558999999999997
Li2Mn3F8,2.9381
Li2Mn3F8,2.5012000000000003
Li2Mn3F8,3.3569999999999998
Li2Mn3F8,3.3624
Li2Mn3F8,3.3757
Li2Mn3F8,3.0057
Li2Mn3F8,3.3809
Li2Mn3F8,3.5244
Li2Mn3F8,3.3773
Li2Mn3F8,2.7261
Li2Mn3F8,3.4295999999999998
Li2Mn3F8,2.7893
Li2Mn3FeO8,0.0
Li2Mn3FeO8,0.3533999999999997
Li2Mn3FeO8,0.35009999999999986
Li2Mn3FeO8,0.48480000000000034
Li2Mn3FeO8,0.4558
Li2Mn3FeO8,0.014100000000000001
Li2Mn3FeO8,0.5707
Li2Mn3GaO8,0.3953000000000002
Li2Mn3GaO8,0.5734000000000004
Li2Mn3GaO8,0.6291000000000002
Li2Mn3GaO8,0.0
Li2Mn3NbO8,1.2736999999999998
Li2Mn3NbO8,0.9418
Li2Mn3NbO8,1.2763
Li2Mn3NbO8,1.3095999999999999
Li2Mn3NbO8,0.0
Li2Mn3NbO8,0.5009000000000001
Li2Mn3NbO8,0.2490000000000001
Li2Mn3NiO8,1.6260999999999999
Li2Mn3NiO8,0.5344000000000002
Li2Mn3NiO8,0.30909999999999993
Li2Mn3NiO8,0.9363000000000001
Li2Mn3NiO8,0.6248999999999998
Li2Mn3NiO8,1.263
Li2Mn3NiO8,0.7708999999999997
Li2Mn3O6,0.016499999999999737
Li2Mn3O6,0.5182000000000002
Li2Mn3O6,0.0
Li2Mn3O6,0.3858999999999999
Li2Mn3O6,0.8406000000000002
Li2Mn3O7,1.0299
Li2Mn3OF6,1.7183
Li2Mn3OF6,2.4173999999999998
Li2Mn3P4(HO4)4,3.6289
Li2Mn3P5O18,0.7114000000000001
Li2Mn3P9O28,0.7298
Li2Mn3SbO8,0.2993000000000001
Li2Mn3SbO8,0.7547000000000001
Li2Mn3SbO8,1.1814999999999998
Li2Mn3SbO8,0.8902999999999999
Li2Mn3SbO8,0.18339999999999979
Li2Mn3SbO8,1.0902000000000003
Li2Mn3SbO8,0.4958999999999998
Li2Mn3Si3O10,2.5783
Li2Mn3SnO8,0.6745999999999999
Li2Mn3SnO8,0.8759000000000001
Li2Mn3SnO8,0.6067
Li2Mn3SnO8,0.8700999999999999
Li2Mn3SnO8,0.0
Li2Mn3SnO8,0.5106000000000002
Li2Mn3SnO8,0.2541000000000002
Li2Mn3TeO8,0.007699999999999818
Li2Mn3TeO8,0.649
Li2Mn3TeO8,0.49960000000000004
Li2Mn3TeO8,0.14029999999999987
Li2Mn3TeO8,0.0
Li2Mn3VO8,1.0272000000000001