formula,band_gap
HgAsO3,1.2350999999999999
HgAsPd5,0.0
HgAsS2,0.9166999999999998
HgAu3,0.0
HgAu4,0.0
HgB4O7,1.7969
HgB4O7,2.5834
HgBi3,0.0
HgBiO3,0.0
HgBr,2.2557
HgBr2,2.5527
HgBr2,1.6827
HgBr3,0.0
HgBrCl,2.7804
HgBrCl,2.5934999999999997
HgBrO3,3.2015
HgBrO4,0.0
HgC2O2F3,3.2681
HgCS(OF)3,3.3625
HgCSNCl,2.4401
HgCl,2.7243000000000004
HgCl2,3.5288999999999997
HgCl2,2.8686
HgClO3,3.0660999999999996
HgClO4,0.013499999999999845
HgClO6,0.0
HgF,1.7704
HgF2,0.7648999999999999
HgF2,0.9687
HgF2,0.3962999999999999
HgF3,0.0
HgH10C3Br3N,2.6161
HgH10C3I3N,2.0883
HgH10N2Cl4O,2.8621999999999996
HgH12(ClO7)2,3.481
HgH12C2(Br2N3)2,2.7234
HgH12C2(I2N3)2,2.2237999999999998
HgH16(Br3N2)2,2.2377000000000002
HgH16(Br3N2)2,2.0374999999999996
HgH16(Br3N2)2,1.9891999999999999
HgH16C6(N2Cl)2,3.7758000000000003
HgH20C6(NCl2)2,3.2998000000000003
HgH24C8(I2N)2,2.5974
HgH2NCl,2.3849
HgH2SO5,1.9665000000000001
HgH2SeO5,1.4897
HgH4C2(N2Cl)2,2.2824
HgH4C2S2(N3Cl)2,3.0082
HgH4C2S2(O4F3)2,3.3164
HgH6I3NO,1.4435
HgH8C2Br3N,2.5334000000000003
HgH8C2S2(NCl)4,3.1283000000000003
HgH9C3SI3,2.3803
HgHClO4,2.3817
HgHNO4,1.5664
HgHOF,1.4590999999999998
HgI,1.6426000000000003
HgI2,2.3302
HgI2,1.3324
HgI2,1.3495
HgI2,1.3751
HgI2,1.7375
HgI3,0.0
HgI3NO,0.8361000000000001
HgIBr,2.362
HgINO3,1.9661
HgMo6(SeS)4,0.0
HgMoO4,2.2557
HgNCl,0.0
HgNCl,0.09060000000000001
HgNO2,2.0771
HgNO3,2.5687
HgNO4,0.0014999999999998348
HgNO4,0.0
HgNO4,0.1762999999999999
HgO,1.2712
HgO,1.1867
HgO,0.0
HgO,1.3043
HgO,1.3101
HgOF,0.0
HgP14Pb,1.2948000000000004
HgP2(PdO4)2,0.5524999999999998
HgP2PdO7,1.3365000000000002
HgP2Xe5F22,2.0719
HgPO4,0.0
HgPPd5,0.0
HgPPt5,0.0
HgPS3,1.7549
HgPSe3,1.2066
HgPb2,0.0
HgPb2(ClO)2,2.2693
HgPb2Br3O2,0.10629999999999984
HgPb3,0.0
HgPb4,0.0
HgPbF6,1.3192
HgPd,0.0
HgPd2Au,0.0
HgPd3,0.0
HgPd5Se,0.0
HgPdF4,0.0
HgPt,0.0
HgPt2Se3,0.0
HgPt3,0.0
HgPt4,0.0
HgPtO2,0.0
HgRhF6,0.0
HgS,0.0
HgS,1.7204000000000002
HgS,1.6863000000000001
HgS2O7,2.6024000000000003
HgS4,1.0474999999999999
HgS4(NCl)3,1.6755
HgSBr,1.5473
HgSO4,1.3525
HgSb2F13,0.20189999999999975
HgSb2Xe5F22,2.2327000000000004
HgSb3XeF17,2.5858
HgSb4C2(OF11)2,4.1692
HgSbOF8,1.9133
HgSe,1.0432000000000001
HgSe,0.0
HgSeO3,1.9987000000000001
HgSeO3,2.6045
HgSeO3,2.5571
HgSeO4,0.8439999999999999
HgTe,0.27890000000000015
HgTe,0.0
HgTe,0.48019999999999996
HgTe(H2O3)2,2.0783
HgTe(HO)7,2.6942
HgTe2(OF5)2,2.4788
HgTe2C2(NF8)2,2.0982000000000003
HgTe3H12C4N,0.806
HgTeO3,2.2362
HgTeO3F,0.04940000000000011
HgWO4,1.768
HgWO4,2.2876
Ho,0.0
Ho(Al2Cr)4,0.0
Ho(Al2Cu)4,0.0
Ho(Al2Fe)4,0.0
Ho(Al5Fe)2,0.0
Ho(Al5Re)2,0.0
Ho(Al5Ru)2,0.0
Ho(AlC)3,0.0
Ho(AlCl4)3,4.31
Ho(AlCu)6,0.0
Ho(AlFe)6,0.0
Ho(AlGe)2,0.0
Ho(AlSi)2,0.0
Ho(BC)2,0.0
Ho(BO2)3,5.5044
Ho(BO2)6,0.12919999999999998
Ho(BRh)4,0.0
Ho(BRu)4,0.0
Ho(Bi3O5)4,0.0
Ho(BiO3)2,0.0
Ho(ClO4)3,5.0172
Ho(ClO4)3,5.7915
Ho(Co2B)6,0.0
Ho(CoB)2,0.0
Ho(CoB)4,0.0
Ho(CoGe)2,0.0
Ho(CoGe)6,0.0
Ho(CoSi)2,0.0
Ho(CrFe5)2,0.0
Ho(CrGe)6,0.0
Ho(CrSi)2,0.0
Ho(CuGe)2,0.0
Ho(CuO2)2,0.0
Ho(CuS)3,1.4907000000000004
Ho(CuS)3,0.0
Ho(CuSi)2,0.0
Ho(CuTe)3,0.7792000000000003
Ho(Fe2Ge)2,0.0
Ho(Fe5Mo)2,0.0
Ho(Fe5Re)2,0.0
Ho(Fe5Si)2,0.0
Ho(FeB)2,0.0
Ho(FeGe)2,0.0
Ho(FeGe)6,0.0
Ho(FeSi)2,0.0
Ho(FeSn)6,0.0
Ho(GaCo)6,0.0
Ho(GaFe)6,0.0
Ho(Ge2Rh3)2,0.0
Ho(GePd)2,0.0
Ho(GeRh)2,0.0
Ho(GeRu)2,0.0
Ho(HO)3,3.6657
Ho(IO3)3,3.1066000000000003
Ho(MnAl)6,0.0
Ho(MnAl2)4,0.0
Ho(MnGa)6,0.0
Ho(MnGe)2,0.0
Ho(MnGe)6,0.0
Ho(MnSi)2,0.0
Ho(MnSn)6,0.0
Ho(Mo3S4)2,0.0
Ho(Mo3Se4)2,0.0
Ho(MoO3)2,0.7620999999999998
Ho(NO3)3,3.2838
Ho(Ni2As)2,0.0
Ho(Ni2B)6,0.0
Ho(Ni2P)2,0.0
Ho(NiB)2,0.0
Ho(NiGe)2,0.0
Ho(NiP)2,0.0
Ho(NiSb)2,0.0
Ho(PO3)3,5.6162
Ho(PPd)2,0.0
Ho(PRu)2,0.0
Ho(SbO3)2,0.0
Ho(SiAu)2,0.0
Ho(SiIr)2,0.0
Ho(SiNi)2,0.0
Ho(SiNi5)2,0.0
Ho(SiOs)2,0.0
Ho(SiPd)2,0.0
Ho(SiPt)2,0.0
Ho(SiRh)2,0.0
Ho(SiRu)2,0.0
Ho(TiGa2)2,0.0
Ho(VFe5)2,0.0
Ho(WO3)2,0.0
Ho(ZnP)3,0.40080000000000027
Ho10In20Ni9,0.0
Ho10Mn13C18,0.0
Ho10Si17,0.0
Ho10Te7S10,1.5769999999999995
Ho10Ti6O27,2.2710000000000004
Ho10Ti6O27,1.6039000000000003
Ho11(In3Ge2)2,0.0
Ho11(In3Si2)2,0.0
Ho11(Ni10C)6,0.0
Ho11Cd45,0.0
Ho11Ge10,0.0
Ho11Sn10,0.01499999999999968
Ho11Te16ClO48,2.7859
Ho12(MnC3)5,0.0
Ho12Al7Si,0.0
Ho12Co5Bi,0.0
Ho12Co7,0.0
Ho12Ge5S28,1.0152
Ho12In3Fe2,0.0
Ho12InPt7,0.0
Ho12Ni6Pb,0.0
Ho12Si5S28,1.7024
Ho13(Mg2Zn27)2,0.016999999999999904
Ho13Zn58,0.02859999999999996
Ho14(PbS8)3,2.1894
Ho14(PbS8)3,2.1048999999999998
Ho14Ag51,0.0
Ho14Ge23,0.0
Ho15C19,0.0
Ho15Si9C,0.0
Ho2(Al3Ir)3,0.0
Ho2(Al3Pd)3,0.0
Ho2(B2Rh3)3,0.0
Ho2(CoNi)5,0.0
Ho2(Fe3Si)3,0.0
Ho2(Ga3Co)3,0.0
Ho2(Ga3Ir)3,0.0
Ho2(Ga3Rh)3,0.0
Ho2(Ga3Ru)3,0.0
Ho2(GePt3)3,0.0
Ho2(MoO4)3,3.3539
Ho2(MoO4)3,3.5751
Ho2(Ni2B)5,0.0
Ho2(Ni5B2)3,0.0
Ho2(Ni5B3)3,0.0
Ho2(NiB2)3,0.0
Ho2(SO4)3,5.675000000000001
Ho2(SO4)3,5.9222
Ho2(SeO3)3,4.5173
Ho2(SeO3)3,3.4041
Ho2(SeO3)3,3.9351
Ho2(SeO4)3,3.7327
Ho2(SeO4)3,3.8112
Ho2(SeO4)3,3.0062
Ho2(WO4)3,4.4582
Ho2(WO4)3,3.7126
Ho20Cu6(Pb3S14)3,1.2996000000000003
Ho20In40Rh19,0.0
Ho2AgAu,0.0
Ho2AgHg,0.0
Ho2AgIr,0.0
Ho2AgOs,0.0
Ho2AgRu,0.0
Ho2Al,0.0
Ho2Al3Co14,0.0
Ho2Al3Fe,0.0
Ho2Al3Ge4,0.0
Ho2Al3Si2,0.0
Ho2AlCd,0.0
Ho2AlFe3,0.0
Ho2AlGe3,0.0
Ho2AlNi2,0.0
Ho2AlOs,0.0
Ho2AlRu,0.0
Ho2AlSi2,0.0
Ho2AlZn,0.0
Ho2As7Rh12,0.0
Ho2Au,0.0
Ho2Au5F21,1.6192
Ho2B3O8,0.11390000000000011
Ho2B4C,0.0
Ho2B4O9,5.6073
Ho2B4O9,5.659700000000001
Ho2B6Os,0.0
Ho2B6Rh,0.0
Ho2B6Ru,0.0
Ho2Be2GeO7,4.4313
Ho2Be2SiO7,5.0859000000000005
Ho2Bi2O7,0.0
Ho2BiO2,0.0
Ho2C,0.0
Ho2C(NO)2,3.9966000000000004
Ho2C3,0.0
Ho2CF2,1.1355000000000004
Ho2CdCu2,0.0
Ho2CdHg,0.0
Ho2CdIn,0.0
Ho2CdOs,0.0
Ho2CdPd2,0.0
Ho2CdS4,2.1641999999999992
Ho2CdS4,0.6562000000000001
Ho2CdS4,0.8872999999999998
Ho2CdS4,1.1172000000000002
Ho2CdSe4,0.6036999999999999
Ho2CdSe4,0.7477
Ho2Co12Ni5,0.0
Ho2Co12P7,0.0
Ho2Co17,0.0
Ho2Co2I,0.0
Ho2Co3Ge5,0.0
Ho2Co3Si5,0.0
Ho2Co7,0.0
Ho2Co7B3,0.0
Ho2CoGe2,0.0
Ho2CoGe6,0.0
Ho2CoOs,0.0
Ho2CoPtO6,1.7584
Ho2CoRu,0.0
Ho2CoSi2,0.0
Ho2CoTe2(SO7)2,3.0518000000000005
Ho2Cr2C3,0.0
Ho2Cr2Co15,0.0
Ho2CrS4,0.0
Ho2CrSbO7,1.6887999999999996
Ho2Cu(B2O5)2,0.6646000000000001
Ho2Cu(BO2)8,0.8664999999999998
Ho2Cu(GeO3)4,0.7174
Ho2Cu(GeO4)2,0.6806000000000001
Ho2Cu(SiO3)4,0.7784
Ho2Cu(WO4)4,0.0
Ho2Cu2O5,0.15629999999999988
Ho2CuGe6,0.0
Ho2CuIr,0.0
Ho2CuO4,0.0
Ho2CuOs,0.0
Ho2CuPd,0.0
Ho2CuPt,0.0
Ho2CuRh,0.0
Ho2CuRu,0.0
Ho2CuTc,0.0
Ho2CuTe2(SO7)2,0.8660000000000001
Ho2Fe12P7,0.0
Ho2Fe14B,0.0
Ho2Fe14C,0.0
Ho2Fe17,0.0
Ho2Fe17C,0.0
Ho2Fe17C3,0.0
Ho2Fe17H3,0.0
Ho2Fe17N3,0.0
Ho2Fe2Si2C,0.0
Ho2Fe3Si5,0.0
Ho2Fe5Co12,0.0
Ho2FeC4,0.0
Ho2FeMoO7,0.6350000000000002
Ho2FeSbO7,1.3926999999999996
Ho2FeSi2,0.0
Ho2FeSi4,0.0
Ho2Ga3(Fe7C)2,0.0
Ho2Ga3Cu,0.0
Ho2Ga3Fe,0.0
Ho2Ga3Ni,0.0
Ho2Ga8Co,0.0
Ho2Ga8Fe,0.0
Ho2GaAg,0.0
Ho2GaCo2,0.0
Ho2GaNi2,0.0
Ho2GaOs,0.0
Ho2GaRu,0.0
Ho2Ge2O7,3.7385
Ho2Ge2O7,3.0028999999999995
Ho2Ge2O7,3.9701
Ho2Ge2O7,3.3100000000000005
Ho2Ge2Os,0.0
Ho2Ge2Rh,0.0
Ho2Ge2Ru,0.0
Ho2Ge5Rh3,0.0
Ho2Ge5Ru3,0.0
Ho2Ge6Pd,0.0
Ho2Ge6Pt,0.0
Ho2H16S3O20,5.3217
Ho2H4CO7,4.9922
Ho2Hf2(MoO4)7,3.1817
Ho2Hf2O7,3.1157000000000004
Ho2HfS5,1.2606000000000002
Ho2HgO4,2.0968999999999998
Ho2HgOs,0.0
Ho2In,0.0
Ho2In3Cu,0.0
Ho2In8Co,0.0
Ho2InAg,0.0
Ho2InAu2,0.0
Ho2InGe2,0.0
Ho2InHg,0.0
Ho2InNi2,0.0
Ho2InOs,0.0
Ho2InPd2,0.0
Ho2IrAu,0.0
Ho2IrPd,0.0
Ho2IrRh,0.0
Ho2IrRu,0.0
Ho2Mg,0.0
Ho2Mg(BiO3)4,0.8040999999999996
Ho2Mg(SbO3)4,1.7027
Ho2Mg3Ge4,0.0
Ho2MgAg2(WO4)4,2.3227
Ho2MgAg2(WO4)4,2.1306
Ho2MgAg2(WO4)4,2.2055000000000002
Ho2MgAg2(WO4)4,1.9614000000000003
Ho2MgAg2(WO4)4,2.2611999999999997
Ho2MgAl,0.0
Ho2MgCd,0.0
Ho2MgCr2O8,0.9856
Ho2MgCr2O8,1.5434999999999999
Ho2MgCu2,0.0
Ho2MgGa,0.0
Ho2MgGe2,0.0
Ho2MgIn,0.0
Ho2MgMo2(ClO4)2,1.793
Ho2MgMo2(ClO4)2,1.7487
Ho2MgNi2,0.0
Ho2MgOs,0.0
Ho2MgPd2,0.0
Ho2MgRu,0.0
Ho2MgS4,2.3781
Ho2MgS4,2.523
Ho2MgS4,1.8891999999999998
Ho2MgS4,1.3388999999999998
Ho2MgS4,1.9659000000000002
Ho2MgS4,2.6430999999999996
Ho2MgSe4,1.3304
Ho2MgSe4,1.9584000000000001
Ho2MgSe4,2.0673
Ho2MgSe4,1.1386000000000003
Ho2MgSe4,2.2309
Ho2MgSe4,1.5904000000000003
Ho2MgSi2,0.0
Ho2MgTc,0.0
Ho2MgTiO6,3.2261999999999995
Ho2MgTl,0.0
Ho2MgV2O7,1.3950999999999998
Ho2MgV2O7,1.4803000000000002
Ho2MgV2O8,1.5759000000000003
Ho2MgV4O12,0.7401000000000004
Ho2MgW2(ClO4)2,2.4349999999999996
Ho2Mn(GeO3)4,2.0636000000000005
Ho2Mn12GaGe11,0.0
Ho2Mn12P7,0.0
Ho2Mn17C3,0.0
Ho2Mn2O7,0.9335
Ho2Mn3Co14,0.0
Ho2Mn3Sb3O14,1.0202999999999998
Ho2Mn3Si5,0.0
Ho2MnGe4,0.0
Ho2MnNiO6,1.8696000000000002
Ho2MnOs,0.0
Ho2MnRuO7,0.0
Ho2Mo2C3,0.0
Ho2Mo4O15,3.3221000000000003
Ho2MoO6,2.1491000000000002
Ho2Nb2S7O30,0.13579999999999998
Ho2Nb3Ge4,0.0
Ho2Ni(B2O5)2,3.904
Ho2Ni12As7,0.0
Ho2Ni12P7,0.0
Ho2Ni17,0.0
Ho2Ni22C3,0.0
Ho2Ni2Pb,0.0
Ho2Ni2Sn,0.0
Ho2Ni7,0.0
Ho2NiAs2,0.0
Ho2NiB10,0.0
Ho2NiGe6,0.0
Ho2NiIr,0.0
Ho2NiRu,0.0
Ho2NiRuO6,0.0
Ho2NiSb4,0.0
Ho2O3,4.2423
Ho2O3,4.0575
Ho2O3,3.9457999999999998
Ho2OsAu,0.0
Ho2OsC2,0.0
Ho2OsPd,0.0
Ho2OsPt,0.0
Ho2OsRh,0.0
Ho2OsRu,0.0
Ho2P4O13,5.4955
Ho2P4O13,5.3357
Ho2P4O13,5.6319
Ho2P4O13,5.438000000000001
Ho2P7Rh12,0.0
Ho2Pb2O7,1.1706000000000003
Ho2PbS4,2.2499
Ho2PbS4,2.1222
Ho2Pd2Pb,0.0
Ho2PdRh,0.0
Ho2PdRu,0.0
Ho2Pt,0.0
Ho2Pt2O7,1.5068999999999995
Ho2Re2Si2C,0.0
Ho2Re3Si5,0.0
Ho2ReB6,0.0
Ho2ReC2,0.0
Ho2Ru2O7,0.0
Ho2RuAu,0.0
Ho2RuPt,0.0
Ho2RuRh,0.0
Ho2S3,1.9342000000000006
Ho2S3,1.4612999999999996
Ho2S3,0.6113999999999997
Ho2S3,2.4745
Ho2SO2,3.0282999999999998
Ho2SO2,2.8696
Ho2Sb2O7,1.3472
Ho2Sb2O7,1.6212
Ho2Sb5,0.0
Ho2SbO2,0.0
Ho2Sc3Si4,0.0
Ho2ScNbO7,2.0336000000000003
Ho2Se3,1.6322
Ho2Se3,1.315
Ho2SeO2,2.1517000000000004
Ho2SeOF2,2.8657999999999997
Ho2Si2O7,4.616
Ho2Si2O7,5.0286
Ho2Si3,0.0
Ho2Si3Pd,0.0
Ho2Si3Rh,0.0
Ho2Si4CN6,3.081200000000001
Ho2Si4Mo3,0.0
Ho2Si5Ni3,0.0
Ho2Si5Rh3,0.0
Ho2SiGe,0.0
Ho2SiO5,4.702
Ho2SiPd2,0.0
Ho2SiSO4,2.6279000000000003
Ho2SiSeO4,2.5613
Ho2Sn2O7,2.7013
Ho2Sn3(PbS4)3,0.6225000000000005
Ho2Sn5Rh3,0.0
Ho2SnAu2,0.0
Ho2Te3,0.5307999999999997
Ho2Te4O11,3.2394999999999996
Ho2Te5,0.0
Ho2Te5O13,3.0071
Ho2TeO2,0.6118999999999994
Ho2TeO2,0.7656000000000001
Ho2TeO2,0.5838000000000001
Ho2TeO6,3.1026
Ho2TeO6,2.5187999999999997
Ho2TeO6,3.0134
Ho2TeS2,1.7469000000000001
Ho2Ti12(CuO4)9,0.07650000000000023
Ho2Ti2O7,2.7208000000000006
Ho2Ti2O7,2.9749000000000003
Ho2Ti3Si4,0.0
Ho2TiCuO6,0.0
Ho2TiO5,2.2426000000000004
Ho2TiO5,3.0358
Ho2TiO5,2.8337
Ho2TiO5,3.2848999999999995
Ho2TiO5,3.1511999999999993
Ho2TlAg,0.0
Ho2TlCd,0.0
Ho2TlHg,0.0
Ho2TlIn,0.0
Ho2TlZn,0.0
Ho2V2O7,1.2503000000000002
Ho2V2O7,0.19609999999999994
Ho2VFeO6,0.0
Ho2VPO8,3.0096999999999996
Ho2WO6,3.7755
Ho2WO6,2.6517
Ho2WO6,3.6336000000000004
Ho2WO6,3.2397
Ho2Zn17,0.0
Ho2ZnAg,0.0
Ho2ZnAu,0.0
Ho2ZnCu,0.0
Ho2ZnCuSi2,0.0
Ho2ZnGa,0.0
Ho2ZnHg,0.0
Ho2ZnIn,0.0
Ho2ZnIr,0.0
Ho2ZnOs,0.0
Ho2ZnPd,0.0
Ho2ZnPt,0.0
Ho2ZnRh,0.0
Ho2ZnRu,0.0
Ho2ZnS4,2.3423
Ho2ZnTc,0.0
Ho2ZnTe2(SO7)2,3.9851
Ho2Zr2O7,2.8437999999999994
Ho2Zr2O7,2.4812
Ho2Zr2O7,3.7525
Ho2Zr8O19,3.0953000000000004
Ho2ZrS5,1.2642000000000007
Ho3(AgSn)4,0.0
Ho3(Al3Os)4,0.0
Ho3(Al3Ru)4,0.0
Ho3(AlNi3)2,0.0
Ho3(Co2Sn)4,0.0
Ho3(CoGe2)2,0.0
Ho3(CuGe)4,0.0
Ho3(CuSi)4,0.0
Ho3(CuSn)4,0.0
Ho3(FeGe)4,0.0
Ho3(Ga2Cu)2,0.0
Ho3(GaNi3)2,0.0
Ho3(GePd)4,0.0
Ho3(GeRh)2,0.0
Ho3(In2Co)2,0.0
Ho3(NiRu2)2,0.0
Ho3(P3Pd10)2,0.0
Ho3(SbPd2)4,0.0
Ho3(Si3Pd10)2,0.0
Ho3(Si3Ru)4,0.0
Ho3(SiNi3)2,0.0
Ho3Al2,0.0
Ho3Al2(Ni3H4)2,0.0
Ho3Al5O12,4.6662
Ho3AlC,0.0
Ho3AlN,0.0
Ho3AlNi8,0.0
Ho3B7Mo,0.0
Ho3B7W,0.0
Ho3Bi,0.0
Ho3C4,0.0
Ho3Co,0.0
Ho3Co11B4,0.0
Ho3Co2Si3,0.0
Ho3Co2Si7,0.0
Ho3Co4Ge13,0.0
Ho3Co6Sn5,0.0
Ho3CrB7,0.0
Ho3CrS6,0.0
Ho3Cu11Si4,0.004699999999999704
Ho3Cu3Sb4,0.31430000000000025
Ho3CuGeS7,1.7591999999999999
Ho3CuSiS7,1.8224999999999998
Ho3CuSiSe7,1.6037000000000003
Ho3CuSnS7,1.4608999999999996
Ho3Er,0.0
Ho3Er3MnBi2,0.0
Ho3Er9(MnBi2)2,0.0
Ho3Fe29,0.0
Ho3Fe2Si3,0.0
Ho3Fe5O12,1.6689999999999996
Ho3FeB7,0.0
Ho3Ga,0.0
Ho3Ga15Ru4,0.0
Ho3Ga2,0.02760000000000007
Ho3Ga5,0.0
Ho3Ga5O12,3.3260999999999994
Ho3Ga8Ag3,0.0
Ho3Ga8Ir3,0.0
Ho3Ga8Rh3,0.0
Ho3Ga9Pd2,0.0
Ho3Ga9Pt2,0.0
Ho3GaNi,0.0
Ho3GaO6,3.5644
Ho3GaS6,2.0940999999999996
Ho3Ge13Ir4,0.0
Ho3Ge13Os4,0.0
Ho3Ge13Rh4,0.0
Ho3Ge13Ru4,0.0
Ho3Ge3Ir2,0.0
Ho3Ge3Ru2,0.0
Ho3Ge4,0.0
Ho3Ge5,0.0
Ho3Hg,0.0
Ho3In,0.0
Ho3In5,0.0
Ho3InN,0.0
Ho3InS6,1.0963000000000003
Ho3Ir,0.0
Ho3Ir2,0.0
Ho3Lu,0.0
Ho3Mg,0.0
Ho3Mn3Ga2Ge,0.0
Ho3Mn3Ga2Si,0.0
Ho3MnB7,0.0
Ho3Ni,0.0
Ho3Ni19B10,0.0
Ho3Ni2,0.0
Ho3NiGe2,0.0
Ho3Os,0.0
Ho3Pb,0.0
Ho3PbC,0.0
Ho3Pd2,0.0
Ho3Pd4,0.0
Ho3Pt,0.0
Ho3Pt4,0.0
Ho3ReB7,0.0
Ho3ReO7,0.0
Ho3ReO8,1.4741
Ho3ReO8,1.4825999999999997
Ho3Rh2,0.0
Ho3Ru,0.0
Ho3Ru2,0.0
Ho3SOF5,3.6385
Ho3Sb,0.0
Ho3Sb4Au3,0.5575999999999999
Ho3Sb5O12,3.1294
Ho3SbO3,0.3746999999999998
Ho3SbO7,2.7558000000000002
Ho3Sc,0.0
Ho3Sc2Al3O12,4.763999999999999
Ho3Sc2S7,0.0
Ho3ScO6,4.423
Ho3Se3N,1.5205000000000002
Ho3Se4O12F,3.7086
Ho3Si11Pt23,0.0
Ho3Si13Ir4,0.0
Ho3Si13Os4,0.0
Ho3Si2(SnRh3)3,0.0
Ho3Si3O10F,5.1282
Ho3Sn7,0.0
Ho3TaO7,3.4507
Ho3TaO7,3.4587000000000003
Ho3Te3N,1.1528999999999998
Ho3Th,0.0
Ho3Tl5,0.0
Ho3Tm,0.0
Ho3TmMn8,0.0
Ho3Zr,0.0
Ho4(Al8Pd3)3,0.0
Ho4(Al8Pt3)3,0.0
Ho4(B2O5)3,5.5299
Ho4(CoB2)3,0.0
Ho4(NiGe4)3,0.0
Ho4Al2O9,3.9658999999999995
Ho4BClO7,4.773199999999999
Ho4C5,0.0
Ho4C7,0.4560999999999993
Ho4C7,0.0
Ho4CdCo,0.0
Ho4CdIr,0.0
Ho4CdNi,0.015600000000000058
Ho4CdPd,0.0
Ho4CdPt,0.0
Ho4CdRh,0.0
Ho4CdS7,1.1961
Ho4CdSe7,0.8481999999999998
Ho4Co3,0.0
Ho4CoB13,0.0
Ho4CoSn8,0.0
Ho4CrS7,0.0
Ho4CrSe7,0.0
Ho4Cu5P7,0.3625999999999996
Ho4Fe29Si5,0.0
Ho4Fe5Si3,0.0
Ho4FeS7,0.16999999999999993
Ho4FeSe7,0.0
Ho4FeSn8,0.0
Ho4Ga12Fe,0.0
Ho4Ga12Ni,0.0
Ho4Ga12Pd,0.0
Ho4Ga12Pt,0.21889999999999965
Ho4Ga16Co3,0.0
Ho4Ga21Ni10,0.0
Ho4GaSbS9,2.0656
Ho4Ge6Ir7,0.0
Ho4Ge8Pd,0.0
Ho4Ge8Rh,0.0
Ho4Ge8Ru,0.0
Ho4Ge9Ir13,0.0
Ho4HfAl15,0.0
Ho4In(NiGe2)2,0.0
Ho4In20Ni11,0.0
Ho4In5S13,0.0
Ho4InIr,0.0
Ho4InRh,0.0
Ho4Mg(WO4)6,0.9813999999999998
Ho4MgCo,0.0
Ho4MgGe4,0.0
Ho4MgNi,0.03639999999999999
Ho4MgRh,0.0
Ho4MgRu,0.0
Ho4MgS7,1.0734
Ho4MgTi2O10,0.11380000000000035
Ho4MgTi2O10,0.0
Ho4MnGe8,0.0
Ho4MnS7,0.42550000000000043
Ho4MnSi7,0.0
Ho4Mo4O11,0.49520000000000053
Ho4Ni13C4,0.0
Ho4NiB13,0.0
Ho4NiB14,0.0
Ho4NiSn8,0.0
Ho4ReGe8,0.0
Ho4RuBr5,0.25070000000000014
Ho4Sb3,0.0
Ho4Si2S3O7,2.6198000000000006
Ho4Si3Ge,0.0
Ho4SiGe3,0.0
Ho4US7,0.0
Ho4Zn5Ge6,0.0043000000000001926
Ho4Zr3O12,4.132
Ho4Zr3O12,4.150399999999999
Ho4ZrAl15,0.0
Ho5(Co2Si7)2,0.0
Ho5(CoSn3)6,0.004300000000000637
Ho5(Ge5Ir2)2,0.0
Ho5(Ge5Os2)2,0.0
Ho5(Ge5Rh2)2,0.0
Ho5(GeSb)2,0.0
Ho5(In2Ni)2,0.0
Ho5(In2Pd)2,0.0
Ho5(In2Pt)2,0.0
Ho5(Mo3S4)12,0.0
Ho5(MoO6)2,0.0
Ho5(ReO6)2,0.0
Ho5(Si5Ir2)2,0.0
Ho5(SiB4)2,0.0
Ho5(SiSb)2,0.0
Ho5(Sn3Rh)6,0.0
Ho5B2(O2F3)3,6.0236
Ho5Bi2Pd,0.0
Ho5Bi3,0.0
Ho5BiAu2,0.0
Ho5BiPd2,0.0
Ho5BiPt2,0.0
Ho5Cl11,0.0
Ho5Co19P12,0.0
Ho5Co2Bi,0.0
Ho5CoBi2,0.0
Ho5CoSb2,0.0
Ho5Cu(WO4)8,0.8681000000000001
Ho5CuPb3,0.0
Ho5Ga3,0.0
Ho5Ge3,0.0
Ho5Ge3C,0.0
Ho5Ge4,0.0
Ho5In3,0.0
Ho5Ir2,0.0
Ho5Ir3,0.0
Ho5IrBr9,0.7305999999999999
Ho5Mg,0.0
Ho5Mg(MoO6)2,1.1429000000000005
Ho5Mg(MoO6)2,0.4002000000000008
Ho5Mg24,0.0
Ho5Ni19P12,0.0
Ho5Ni2Bi,0.0
Ho5Ni2Sb,0.0
Ho5NiBi2,0.0
Ho5NiPb3,0.0
Ho5NiSb2,0.0
Ho5P12Ru19,0.0
Ho5Pb3,0.0
Ho5Pb4,0.0
Ho5Pt3,0.0
Ho5Pt4,0.0
Ho5Rh3,0.0
Ho5Ru2,0.0
Ho5S7,0.0
Ho5Sb2Pd,0.001700000000000479
Ho5Sb3,0.0
Ho5SbAu2,0.0
Ho5SbPd2,0.0
Ho5SbPt2,0.0
Ho5Si3,0.0
Ho5Si3B,0.0
Ho5Si3C,0.0
Ho5Si4,0.0
Ho5Sn3,0.0
Ho5Ti5O17,0.0
Ho5Tl3,0.0
Ho5Zr3(Ni4As3)4,0.0
Ho6(Ga3Co)7,0.005199999999999427
Ho6Ag(GeS7)2,0.0
Ho6Al43Cr4,0.0
Ho6Al43Mo4,0.02999999999999936
Ho6Al43V4,0.0
Ho6Al43W4,0.0
Ho6Al7Cu16,0.0
Ho6Bi2Rh,0.0
Ho6Co2Sn,0.0
Ho6CoBi2,0.0
Ho6CoTe2,0.0
Ho6Fe23,0.0
Ho6FeBi2,0.0
Ho6FeSb2,0.0
Ho6GaCo2,0.0
Ho6GaNi2,0.0
Ho6Ge11,0.0
Ho6H40N8O49,2.9414
Ho6InCo2,0.0
Ho6Mg(GeS7)2,2.1279999999999997
Ho6MgWO12,1.8859000000000004
Ho6MgWO12,2.811
Ho6MgWO12,3.0219000000000005
Ho6Mn(GeS7)2,0.9654999999999996
Ho6Mn23,0.0
Ho6Mn4Al43,0.0
Ho6MnBi2,0.0
Ho6MnTe2,0.0
Ho6N8O33,0.0025999999999999357
Ho6Nb4Al43,0.014499999999999957
Ho6Ni20P13,0.0
Ho6Ni2Sn,0.0
Ho6Pb2Se11,0.9237000000000002
Ho6ReO12,0.035900000000000265
Ho6Se11,0.5463000000000005
Ho6Ta4Al43,0.013200000000000323
Ho6Ti4Al43,0.0
Ho6WO12,3.4086
Ho6Zn23,0.0
Ho7(CuTe4)3,0.4173
Ho7(TeAu)2,0.0
Ho7C2I12N,1.2612999999999999
Ho7Co6Sn23,0.0
Ho7FeI12,0.0
Ho7In(CoGe3)4,0.0
Ho7Mg3Rh2,0.0
Ho7PtI12,0.08190000000000008
Ho7Rh3,0.0
Ho7Ru2C11,0.0
Ho8(AlGe3)3,0.0
Ho8Fe68C3,0.0
Ho8Ga3Co,0.007199999999999651
Ho8In3Co,0.0032000000000005357
Ho8Mg(Ge2O7)4,1.1221999999999999
Ho8Mg12Zn61,0.0
Ho8Rh5C12,0.0
Ho8Sb3O8,0.0
Ho9Al5Se21,1.6635
Ho9B4O19,0.2656999999999998
Ho9B5S21,1.4704999999999995
Ho9Er3(MnBi2)2,0.0
Ho9Sb5CO4,0.0
HoAg,0.0
HoAg(WO4)2,3.1615
HoAg2,0.0
HoAgGe,0.0
HoAgHg2,0.0
HoAgPb,0.0
HoAgS2,1.5202
HoAgS2,1.7796999999999996
HoAgSe2,0.4761000000000002
HoAgSe2,0.0
HoAgSe2,1.2711999999999999
HoAgSe2,0.6289000000000002
HoAgSe2,0.6869000000000001
HoAgSe2,0.5030999999999999
HoAgSn,0.0
HoAgSn2,0.0
HoAgTe2,1.1020000000000003
HoAgTe2,0.8999000000000006
HoAl,0.0
HoAl2,0.0
HoAl2Ni,0.0
HoAl3,0.0
HoAl3(BO3)4,5.5914
HoAl3(BO3)4,5.4672
HoAl3(H3C)12,4.0129
HoAl3(PbO4)2,2.9941
HoAl3Cu,0.0
HoAl3Ni2,0.0
HoAl4Ni,0.0
HoAl7Au3,0.0
HoAl7Fe5,0.0
HoAlAg2,0.0
HoAlAu,0.0
HoAlAu2,0.0
HoAlB14,0.0
HoAlB4,0.0
HoAlCo,0.0
HoAlCu,0.0
HoAlCu4,0.0
HoAlFe,0.0
HoAlGa,0.0
HoAlGe,0.0
HoAlNi,0.0
HoAlNi4,0.0
HoAlO3,5.8359
HoAlPd,0.0
HoAlPt,0.0
HoAlRh,0.0
HoAlSi,0.0
HoAs,0.0
HoAsO4,3.609
HoAsO4,3.5415
HoAsPd,0.0
HoAsPt,0.0
HoAsS,0.017700000000000493
HoAsS,None
HoAsSe,0.006700000000000372
HoAsSe,0.21030000000000015
HoAsSe,0.0
HoAu,0.0
HoAu2,0.0
HoAu3,0.0
HoAu4,0.0
HoAu6,0.1695000000000002
HoB12,0.0
HoB2,0.0
HoB2C,0.0
HoB2Ir3,0.0
HoB2Os,0.0
HoB2Rh2C,0.0
HoB2Rh3,0.0
HoB2Ru,0.0
HoB2Ru3,0.0
HoB3H18C2S,3.7569
HoB3Mo,0.0
HoB4,0.0
HoB4Mo,0.5762
HoB4Os,0.0
HoB4Rh,0.0
HoB4Rh7,0.0
HoB4Ru,0.0
HoB4W,0.2705000000000002
HoB6,0.0
HoB7Mo3,0.0
HoBO3,5.4365
HoBO3,4.5465
HoBO3,5.089799999999999
HoBO3,5.0472
HoBO3,5.367
HoBPd3,0.0
HoBRh3,0.0
HoBe13,0.0
HoBeCu4,0.0
HoBi,0.0
HoBi2BrO4,1.3664999999999994
HoBi2ClO4,1.3709999999999996
HoBi2IO4,1.3910999999999998
HoBi3,0.0
HoBiO3,3.1343
HoBiO3,2.4719
HoBiO3,2.7472
HoBiPd,0.0
HoBiPt,0.0
HoBiRh,0.0
HoBiTe3,1.0659
HoBr2,0.0
HoBr3,2.8409
HoBrO,4.5018
HoBrO,4.3862000000000005
HoBrO,3.6687999999999996
HoC2,0.0
HoCO4,0.7752
HoCO4,0.1253000000000002
HoCd,0.0
HoCd2,0.0
HoCd3,0.0
HoCd6,0.0
HoCdAg2,0.0
HoCdAu,0.0
HoCdAu2,0.0
HoCdCu4,0.0
HoCdHg2,0.0
HoCdIn,0.0
HoCdNi4,0.0
HoCdPd2,0.0
HoCdPt2,0.0
HoCdRh2,0.0
HoCl2,0.0
HoCl3,3.7011
HoClO,5.1804
HoCo(BO2)5,3.5892000000000004
HoCo2,0.0
HoCo3,0.0
HoCo3B2,0.0
HoCo3Cu2,0.0
HoCo3Ni2,0.0
HoCo3P2,0.0
HoCo4B,0.0
HoCo4Cu,0.0
HoCo4Ni,0.0
HoCo5,0.0
HoCo5P3,0.0
HoCo5Si3,0.0
HoCoB4,0.0
HoCoC,0.0
HoCoC2,0.0
HoCoGe,0.0
HoCoGe2,0.0
HoCoNi,0.0
HoCoO3,0.0
HoCoRu,0.0
HoCoSi,0.0
HoCoSi2,0.0
HoCoSn,0.0
HoCoSn2,0.0
HoCr2Si2C,0.0
HoCrB4,0.16779999999999973
HoCrGeO5,2.9071000000000002
HoCrO3,2.2161999999999997
HoCrO4,0.05889999999999995
HoCrO4,0.29679999999999995
HoCrTeO6,2.6338
HoCu,0.0
HoCu(MoO4)2,1.9220999999999997
HoCu(WO4)2,0.9253
HoCu2,0.0
HoCu4Ag,0.0
HoCu4Au,0.0
HoCu4Ni,0.0
HoCu4Pd,0.0
HoCu5,0.0
HoCu5Sn,0.0
HoCuAs2,0.0
HoCuGe,0.0
HoCuO2,2.5344
HoCuO2,2.5567
HoCuP2,0.0
HoCuPb,0.0
HoCuPbS3,1.5995999999999997
HoCuPbSe3,1.1844000000000001
HoCuS2,1.6072999999999995
HoCuS2,1.8811000000000004
HoCuSb2,0.0
HoCuSe2,0.5093999999999994
HoCuSe2,1.1100000000000003
HoCuSi,0.0
HoCuSn,0.0
HoCuTe2,0.3895999999999997
HoEr,0.0
HoEr3,0.0
HoErAg2,0.0
HoErAl2,0.0
HoErCd2,0.0
HoErCu2,0.0
HoErHg2,0.0
HoErIn2,0.0
HoErIr2,0.0
HoErMg2,0.0
HoErO3,3.0775000000000006
HoErPd2,0.0
HoErRh2,0.0
HoErRu2,0.0
HoErTl2,0.0
HoErZn2,0.0
HoF3,7.7482
HoFe10Mo2N,0.0
HoFe11Re,0.0
HoFe2,0.0
HoFe2SiC,0.0
HoFe3,0.0
HoFe3(BO3)4,2.3478999999999997
HoFe3(BO3)4,2.3798
HoFe4(CuO4)3,0.0
HoFe5,0.0
HoFe5P3,0.0
HoFe6(Sn2Ge)2,0.0
HoFeB4,0.0
HoFeC2,0.0
HoFeCo,0.0
HoFeCu,0.0
HoFeGe2,0.0
HoFeNi,0.0
HoFeNi4,0.0
HoFeO3,1.5675
HoFeRu,0.0
HoFeSi,0.0
HoGa,0.0
HoGa2,0.0
HoGa2Co3,0.0
HoGa2Ni,0.0
HoGa2Ni3,0.0
HoGa2Pd,0.0
HoGa3,0.0
HoGa3Os,0.0
HoGa3Ru,0.0
HoGa4Ni,0.0
HoGa5Co,0.0
HoGa6,0.0
HoGaAg,0.0
HoGaAu,0.0
HoGaCo,0.0
HoGaNi,0.0
HoGaO3,3.6066
HoGaO3,2.8722
HoGaPd,0.0
HoGaPt,0.0
HoGaRh2,0.0
HoGe,0.0
HoGe2Ir,0.0
HoGe2Pd,0.0
HoGe2Pt,0.0
HoGe3,0.0
HoGeAu,0.0
HoGeIr,0.0
HoGePd,0.0
HoGePd2,0.0
HoGePt,0.0
HoGeRh,0.0
HoGeRu,0.0
HoH15(CO5)3,4.7752
HoH16C2S2NO12,5.4777
HoH18C3S3(O2F)9,5.9498
HoH2,0.0
HoH2ClO2,4.7027
HoH3,0.0
HoH8C2O8F,3.8305
HoH9C5(NO4)2,4.4596
HoH9C5(NO4)2,4.6205
HoHO2,3.9486
HoHO2,4.522500000000001