formula,band_gap
Ca(HoS2)2,1.5526999999999997
Ca(HoS2)2,2.1913
Ca(HoSe2)2,1.1428
Ca(HoTe2)2,0.6065
Ca(IO3)2,3.3591999999999995
Ca(InCu)6,0.0
Ca(InN)2,0.0041999999999999815
Ca(InP)2,0.4085000000000001
Ca(InS2)2,0.8012000000000001
Ca(InTe2)2,0.6854999999999993
Ca(La2Se3)4,0.0
Ca(LaI4)2,2.4684
Ca(LaS2)2,2.1455
Ca(LaTe2)2,1.2605000000000004
Ca(LuS2)2,1.5804
Ca(LuTe2)2,0.6569000000000003
Ca(MgAs)2,1.2605000000000004
Ca(MgBi)2,0.3886000000000003
Ca(MgSb)2,0.7931000000000008
Ca(Mn5N4)2,0.0
Ca(MnAl2)4,0.0
Ca(MnAl3)3,0.0
Ca(MnAs)2,0.0
Ca(MnGe)2,0.0
Ca(MnN)4,0.0376000000000003
Ca(MnP)2,0.0
Ca(MnS2)2,0.0
Ca(MnS2)2,0.4626000000000001
Ca(MnS2)4,0.0
Ca(MnSb)2,0.49160000000000004
Ca(MnSb)2,0.0
Ca(Mo3S4)2,0.0
Ca(MoO2)2,0.0
Ca(MoO2)2,1.1344000000000003
Ca(MoO2)2,0.8480999999999996
Ca(MoO2)2,2.3071
Ca(MoO2)2,1.8193000000000006
Ca(MoO2)2,1.8468
Ca(MoO2)2,1.3125999999999998
Ca(MoO2)2,1.1126000000000005
Ca(MoO2)4,0.0
Ca(MoO2)4,0.15300000000000047
Ca(MoO3)2,0.0
Ca(NO3)2,3.6398
Ca(Nd2Se3)4,0.0
Ca(NdS2)2,2.0612999999999997
Ca(NdTe2)2,1.0995999999999997
Ca(Ni2B)6,0.0
Ca(Ni2O3)2,0.0
Ca(Ni2Sn)2,0.0
Ca(NiAs)2,0.0
Ca(NiGe)2,0.0
Ca(NiO2)2,0.0
Ca(NiO2)2,0.19960000000000022
Ca(NiO2)2,0.6005000000000003
Ca(NiO2)2,0.29019999999999957
Ca(NiO2)2,0.5981000000000001
Ca(NiO2)2,0.6595999999999997
Ca(NiO2)4,0.0
Ca(NiP)2,0.0
Ca(NiS2)4,0.0
Ca(PIr)2,0.49429999999999996
Ca(PO3)2,5.5318000000000005
Ca(PO3)2,5.4485
Ca(PPd)2,0.0
Ca(PRh)2,0.0
Ca(PRu)2,0.0
Ca(Pr2Se3)4,0.0
Ca(PrS2)2,2.0570000000000004
Ca(PrTe2)2,1.1032000000000002
Ca(PtO2)2,0.0
Ca(ReO5)2,0.5606999999999998
Ca(ReO5)2,0.0
Ca(RhO2)2,0.5796999999999999
Ca(RuN)2,0.0
Ca(Sb3Os)4,0.0
Ca(SbO2)2,2.4907
Ca(SbO2)2,2.2340999999999998
Ca(SbO2)2,1.6395999999999997
Ca(SbO2)2,1.3180000000000005
Ca(SbO2)2,1.6755999999999993
Ca(SbO2)2,2.1266999999999996
Ca(SbO2)2,1.1126999999999994
Ca(SbO2)4,1.4866000000000001
Ca(SbO3)2,1.3276000000000003
Ca(SbO3)2,2.6942999999999997
Ca(ScS2)2,1.2862999999999998
Ca(SeO3)2,2.911
Ca(SiAu)2,0.0
Ca(SiNi)2,0.0
Ca(SiO2)6,2.7153
Ca(SiO2)6,2.6361000000000003
Ca(SiO2)8,0.5343
Ca(SiPd)2,0.0
Ca(SiRh)2,0.0
Ca(Sm2Se3)4,0.0
Ca(SmS2)2,2.0833999999999997
Ca(SnO2)2,1.6598999999999995
Ca(SnO2)2,2.0496
Ca(SnO2)2,1.3036999999999992
Ca(SnO2)2,0.7443999999999997
Ca(SnO2)2,0.9879999999999995
Ca(SnO2)2,0.4134000000000002
Ca(SnO2)2,1.4524000000000008
Ca(SnO2)2,1.6843000000000004
Ca(SnO2)2,1.4426000000000005
Ca(SnO2)4,0.20669999999999966
Ca(SnO2)4,0.5571999999999999
Ca(TbS2)2,2.1434000000000006
Ca(TiS2)2,0.0
Ca(TiS2)4,0.0
Ca(TiS2)8,0.0
Ca(TmS2)2,1.5678999999999994
Ca(TmS2)2,1.4526
Ca(TmTe2)2,0.6200000000000001
Ca(VN2)2,1.4902000000000002
Ca(VS2)4,0.0
Ca(WO3)2,1.1728
Ca(YS2)2,1.5361000000000002
Ca(YTe2)2,0.6114999999999995
Ca(ZnAs)2,0.3873000000000002
Ca(ZnGe)2,0.0
Ca(ZnN)2,0.6376
Ca(ZnP)2,0.875
Ca(ZnSb)2,0.0
Ca(ZnSi)2,0.0
Ca10(Al2Ge3)3,0.0
Ca10Ag(PO4)7,3.7416
Ca10Al2Cu19,0.0
Ca10Al6Si13N30,1.8136999999999999
Ca10Ge16(B2O17)3,2.7264
Ca10Ge6F,0.0
Ca10La6Mg3Ti13O48,1.9165999999999999
Ca10Mg2Sb9,0.0
Ca10Mg7Al6Si17O60,4.3438
Ca10Nb5InO24,2.7595000000000005
Ca10P6CO27,5.1373999999999995
Ca10P6ClO24F,5.4126
Ca10P6O25,3.0781000000000005
Ca10P6O25,3.1485
Ca10P6SO24,4.0161
Ca10P6SO24,3.7466
Ca10P6SeO24,3.7474999999999996
Ca10Pr4Cu24O41,0.006599999999999717
Ca10Si3Pt7,0.0
Ca10Si3S3(ClO12)2,4.2895
Ca10Si3S3(ClO12)2,4.5001999999999995
Ca10Si3S3(O12F)2,4.4597999999999995
Ca10Si5(ClO10)2,0.5481000000000003
Ca10Si6F,0.0
Ca10Ta3Ti4Al3(SiO5)10,2.8431999999999995
Ca10TaTi8Al(SiO5)10,2.7784
Ca10Ti8NbAl(SiO5)10,2.8619
Ca10Ti8NbFeO30,1.9961000000000002
Ca10V3P3(O12F)2,3.8137
Ca10V5Fe15(BiO24)2,1.0947
Ca10V6O25,2.0581000000000005
Ca10V6O25,2.0504
Ca10VP5(O12F)2,3.8289
Ca11(CN5)2,0.7760000000000002
Ca11(Cd9Au2)2,0.0
Ca11(CoN5)2,0.0
Ca11(FeN5)2,0.5924
Ca11(MnN5)2,0.0008999999999996788
Ca11(PbN5)2,0.0
Ca11(ReO6)4,0.0
Ca11(RhN5)2,0.0
Ca11Al14O32,3.3720000000000003
Ca11AlSb9,1.1765999999999996
Ca11AlSi3ClO18,3.7607999999999997
Ca11Bi10,0.0
Ca11Cr7O28,0.8384999999999998
Ca11Ga7,0.0
Ca11GaSb9,1.0841000000000003
Ca11InSb9,0.8375000000000004
Ca11Sb10,0.0
Ca11Si4ClO18,0.0
Ca11Si4SO18,3.5249
Ca11Si9As16,0.5669
Ca11Sn3C8,0.6589000000000005
Ca11Tl9O24,0.0
Ca11YAl15Cr4SiO48,0.0
Ca12Al11Si3Cl5O32,4.3306000000000004
Ca12Al14O33,1.9095000000000004
Ca12Al14O33,2.1738
Ca12Be17O29,3.6698999999999997
Ca12FeCo7O24,0.0
Ca12ScCo7O24,0.7907000000000002
Ca13(Ge11Au25)2,0.0
Ca13Al14,0.0
Ca13Nb3(Si2O9)4,0.3756000000000004
Ca13Si10H12(O17F5)2,5.0306999999999995
Ca13Y6F43,0.5768000000000004
Ca14Al12Zn4O35,0.5589000000000004
Ca14AlSb11,0.5897000000000006
Ca14GaAs11,0.33740000000000014
Ca14Hg51,0.0
Ca14La6Mg3Ti17O60,2.1726
Ca14MnAs11,0.0
Ca14MnBi11,0.0
Ca14MnP11,0.009500000000000064
Ca14MnP9(O12F)3,5.1084000000000005
Ca14MnSb11,0.0
Ca14Si19,0.0
Ca15Ni(IrO6)4,0.0
Ca16(SiN2)17,0.0
Ca16HN8,0.0
Ca16Mg3Sn13,0.0
Ca16Mn14Al2O41,0.04280000000000017
Ca16Mn14Al2O43,0.08769999999999989
Ca16Mn14Al2O45,0.0
Ca16Mn14Al2O47,0.2797999999999998
Ca16Sb11,0.4729000000000001
Ca16Zr9Ta7N7O41,2.0888
Ca17Ni19(PO4)24,3.4379
Ca18Eu2P12(SO16)3,0.06080000000000041
Ca18Nd2Si3P9(O16F)3,4.4125
Ca19(Cu12O23)2,0.0
Ca19(Mg4H27)2,2.7886
Ca19Ag8N7,0.0
Ca19Co2(PO4)14,0.0
Ca19In8N7,0.0
Ca19Mg(AsO4)14,0.0015999999999998238
Ca19Mg2(PO4)14,5.077
Ca19Si6S6(ClO24)2,3.9655000000000005
Ca2(Fe2O3)11,0.0
Ca2(Ni7B2)3,0.0
Ca2(TlPb)3,0.0
Ca2(ZnAu3)3,0.0
Ca2(ZnSn2)3,0.0
Ca20(CdGa3)3,0.0
Ca20Er10F69,0.6097999999999999
Ca20Si3Ge9O44,3.8254
Ca21(Cd2Bi9)2,0.15200000000000014
Ca21(Mn2Bi9)2,0.0
Ca21(Mn2Sb9)2,0.0
Ca21(Zn18Ni)2,0.0
Ca21(Zn2As9)2,0.9742000000000002
Ca21(Zn2Sb9)2,0.6327000000000007
Ca22H51Rh11,0.0
Ca24Mg8B16C8O73,0.14350000000000018
Ca28Ga11,0.0
Ca2Ag2O5,0.0
Ca2Ag7,0.0
Ca2AgAu,0.0
Ca2AgBi,0.0
Ca2AgGe,0.0
Ca2AgPb,0.0
Ca2AgPd,0.0
Ca2AgPd2,0.0
Ca2AgRh,0.0
Ca2AgSbO6,0.5650999999999997
Ca2AgSn,0.0
Ca2AgWO6,0.06440000000000023
Ca2AgWO6,0.0
Ca2Al(SiO3)4,0.5954000000000002
Ca2Al11Si13Ag7O48,1.7357
Ca2Al2(SiO4)3,0.0
Ca2Al2FeSi3HO13,2.1070999999999995
Ca2Al2FeSi3O13,0.0
Ca2Al2FeSi4BHO16,3.9301000000000004
Ca2Al2FeSi4BO16,1.0728
Ca2Al2O5,3.5662000000000003
Ca2Al2Si(HO4)2,4.731
Ca2Al2Si(HO4)2,4.2242
Ca2Al2Si6Sn(H3O11)2,4.275
Ca2Al2SiO7,4.3406
Ca2Al2SiO7,3.6755999999999998
Ca2Al2SiO7,4.284800000000001
Ca2Al2SiO8,0.0
Ca2Al2Sn2O9,2.8373
Ca2Al3H3O8,4.488300000000001
Ca2Al3O6F,4.5248
Ca2Al3O8,0.7739
Ca2Al3Si3HO13,5.036199999999999
Ca2Al3Si3O13,0.012700000000000156
Ca2Al3Si3O13,0.0950000000000002
Ca2Al3Si3O14,0.0
Ca2Al4(Si2O7)3,0.31529999999999997
Ca2Al4Si4H10O21,4.9859
Ca2Al4Si4O17,0.32230000000000003
Ca2Al8PbO15,3.9161
Ca2AlAgO5,0.0
Ca2AlBiO5,2.4052999999999995
Ca2AlBiO5,2.3709000000000002
Ca2AlCoO5,0.0
Ca2AlCrO5,2.4178000000000006
Ca2AlCuO5,0.0
Ca2AlF7,7.1413
Ca2AlFeO5,1.7716999999999996
Ca2AlFeO5,0.6981999999999999
Ca2AlH10BrO8,4.0762
Ca2AlH10BrO8,4.1827
Ca2AlH10ClO8,4.3499
Ca2AlH10ClO8,4.3268
Ca2AlH10IO8,3.7769
Ca2AlH2OF7,6.5056
Ca2AlH8S2Cl(O6F)2,5.583799999999999
Ca2AlMoO5,1.6287000000000003
Ca2AlNiO5,0.0
Ca2AlP2O9,0.0
Ca2AlP3Pt7,0.0
Ca2AlPbF9,5.777500000000001
Ca2AlPbOF8,1.8579
Ca2AlPd2,0.0
Ca2AlPt2,0.0
Ca2AlSbO5,2.545
Ca2AlSi2O7,0.0
Ca2AlSnO5,1.6406
Ca2AlVO5,1.6103999999999994
Ca2AlZn16,0.0
Ca2As,0.0
Ca2As2O7,3.3366000000000002
Ca2As3,0.1687000000000003
Ca2As3Pb3ClO12,3.435
Ca2As4(Xe3F14)3,2.3897
Ca2As4Xe5F34,2.5812
Ca2AsAu,0.19810000000000016
Ca2AsClO4,3.8088999999999995
Ca2AsH4F13,4.8857
Ca2AsH4F13,4.8533
Ca2AsI,1.5566
Ca2AuN,0.0
Ca2B2O5,4.6781
Ca2B2O5,4.7075000000000005
Ca2B2O5,4.7423
Ca2B3(HO)13,5.0496
Ca2B3H4ClO8,5.5358
Ca2B4Rh5,0.0
Ca2B5BrO9,5.2036
Ca2B5ClO10,2.8906
Ca2B5ClO9,5.2728
Ca2B5H2ClO10,5.0182
Ca2B5H2ClO10,5.0242
Ca2B5H2ClO10,5.0988999999999995
Ca2B5H3O11,5.5382
Ca2B5H7O13,5.7199
Ca2B5Os3,0.0
Ca2B6O11,5.639
Ca2B8H2O15,5.576099999999999
Ca2B8O15,0.19229999999999992
Ca2BClO3,4.576599999999999
Ca2BHN2,3.0020000000000007
Ca2BN2Cl,3.333
Ca2BN2F,2.9265
Ca2Be2P2O9F,0.7538
Ca2BeSi2O7,4.9868
Ca2Bi,0.0
Ca2Bi10O17,1.4352999999999998
Ca2Bi10O17,1.4293
Ca2Bi2O5,2.0965999999999996
Ca2Bi2O5,2.4956999999999994
Ca2Bi3(PO4)3,0.0
Ca2Bi3Au10,0.0
Ca2Bi3O8,0.0
Ca2Bi7,0.0
Ca2BiAsO6,3.2393
Ca2BiAu,0.00020000000000042206
Ca2BiSbO6,0.8357000000000001
Ca2BiSbO6,1.9745999999999997
Ca2BiWO6,0.5237999999999996
Ca2BiWO6,1.8101000000000003
Ca2BrN,2.4254
Ca2CO3F2,4.944599999999999
Ca2CdAs2,0.8529999999999998
Ca2CdAs2,0.6609000000000003
Ca2CdGa,0.0
Ca2CdH24(ClO2)6,4.1843
Ca2CdHg,0.0
Ca2CdIn,0.0
Ca2CdN2,0.0
Ca2CdN2,0.3893
Ca2CdP2,1.2927000000000004
Ca2CdPb,0.0
Ca2CdPd2,0.0
Ca2CdPt2,0.0
Ca2CdSb2,0.31899999999999995
Ca2CdSn,0.0
Ca2CeNiO6,1.4500000000000002
Ca2CeO4,1.875
Ca2CeO4,2.2602999999999995
Ca2Co(AsO5)2,0.0
Ca2Co12P7,0.0
Ca2Co2O5,0.0
Ca2Co2O5,0.06119999999999992
Ca2Co3O8,0.04310000000000014
Ca2Co3O8,0.0
Ca2Co9O13,0.0
Ca2CoAs2(HO4)2,1.8721999999999999
Ca2CoIrO6,0.0
Ca2CoN2,0.0
Ca2CoRhO6,0.07459999999999978
Ca2CoSbO6,0.6627000000000001
Ca2CoSi2O7,3.096
Ca2CoSi2O7,3.0560000000000005
Ca2CoSi4NiO12,2.9093000000000004
Ca2CoTeO6,2.0668
Ca2CoWO6,0.0
Ca2CoWO6,1.4930000000000003
Ca2Cr2(SiO4)3,0.5882000000000001
Ca2Cr2O5,0.9077000000000002
Ca2Cr2O5,0.8042999999999996
Ca2Cr3O8,0.8584000000000003
Ca2Cr3O8,0.4883000000000002
Ca2Cr9O13,0.3945999999999996
Ca2CrFeO5,1.7324000000000002
Ca2CrH2I2O11,2.7357
Ca2CrIrO6,0.0
Ca2CrN2,0.0
Ca2CrN3,0.0
Ca2CrO4,1.8761
Ca2CrSbO6,2.0309
Ca2CrSbO6,1.9550999999999998
Ca2CrWO6,0.0
Ca2CrWO6,1.8837000000000002
Ca2CrWO6,1.7595
Ca2CrWO6,1.6023000000000005
Ca2Cu,0.0
Ca2Cu(BrO)2,0.0
Ca2Cu(ClO)2,0.0
Ca2Cu2O5,0.0
Ca2Cu2O5,0.6280000000000001
Ca2Cu2Si3(HO3)4,0.5920000000000001
Ca2Cu2Si3(HO3)4,0.5940999999999996
Ca2Cu6P5,0.0
Ca2Cu9O13,0.0
Ca2CuAg,0.0
Ca2CuAs2(H2O5)2,0.7334
Ca2CuB2(HO)12,0.31010000000000004
Ca2CuCO5,0.0
Ca2CuH6(CO2)6,0.7262
Ca2CuIrO6,0.0
Ca2CuN2,0.11770000000000014
Ca2CuO3,0.0
Ca2CuRh,0.0
Ca2CuRhO6,0.0
Ca2CuSbO6,0.34319999999999995
Ca2CuTe4(ClO5)2,0.5422000000000002
Ca2CuWO6,0.0
Ca2Dy3Sb3O14,2.5795999999999997
Ca2DyMnO6,0.0
Ca2DySbO6,3.1986000000000003
Ca2Eu(CuO3)2,0.0
Ca2Eu(Zn3Ni2)3,0.0
Ca2Eu2In3Ge4,0.0
Ca2EuBeO5,0.0
Ca2F,0.0
Ca2Fe2(SiO3)5,1.0906000000000002
Ca2Fe2(SiO4)3,0.0
Ca2Fe2O5,0.0
Ca2Fe2O5,0.4751000000000003
Ca2Fe2O5,0.5681999999999996
Ca2Fe2O5,0.8630999999999998
Ca2Fe2O5,0.5600999999999998
Ca2Fe2Si5HO15,0.026399999999999757
Ca2Fe3O8,0.0
Ca2Fe3O8,0.2755000000000001
Ca2Fe3O8,0.013099999999999667
Ca2Fe3Sb(PO4)6,1.8766999999999998
Ca2Fe3Si3O14,0.02450000000000019
Ca2Fe7O11,0.2748999999999997
Ca2Fe9O13,0.0
Ca2FeBiO6,0.48930000000000007
Ca2FeClO3,0.5775000000000001
Ca2FeCoO5,0.0
Ca2FeCuSO3,0.6759999999999993
Ca2FeH6,1.5002999999999997
Ca2FeIrO6,0.0
Ca2FeMoO6,1.1193000000000004
Ca2FeN2,0.0
Ca2FeOsO6,0.0
Ca2FeP2(H2O3)4,4.325100000000001
Ca2FeP2(H2O5)2,4.408200000000001
Ca2FeReO6,0.0
Ca2FeSbO6,1.4952999999999999
Ca2FeSbO6,2.1517
Ca2FeWO6,1.9888000000000003
Ca2FeWO6,3.0012000000000003
Ca2FeWO6,0.0
Ca2FeWO6,2.7594
Ca2FeWO6,1.0382999999999996
Ca2FeWO6,0.5676000000000005
Ca2Ga2GeO7,3.1220000000000003
Ca2Ga2O5,0.0
Ca2Ga2Si(HO4)2,3.5092
Ca2Ga2Si(HO4)2,3.5382
Ca2Ga2SiO7,3.5592
Ca2Ga7Ag,0.0
Ca2Ga7Au,0.0
Ca2GaAg,0.0
Ca2GaBiO6,0.0
Ca2GaCu2,0.0
Ca2GaFeO5,0.18969999999999976
Ca2GaHg,0.0
Ca2GaPd2,0.0
Ca2GaPt2,0.0
Ca2GaSi,0.0
Ca2GaSi2O7,0.19459999999999944
Ca2GaSn,0.0
Ca2Gd2MnNiO8,1.6446
Ca2Gd3Si3O13,0.0
Ca2GdSbO6,3.8144
Ca2GdTaO6,3.5954
Ca2Ge,0.5756000000000001
Ca2Ge,0.29990000000000006
Ca2Ge7O16,3.5088
Ca2GeN2,0.0
Ca2GeO4,3.5628
Ca2GeO4,2.8981999999999997
Ca2GeO4,3.6002
Ca2GePd2,0.0
Ca2GePd3,0.0
Ca2GePt2,0.0
Ca2GeS4,2.5311
Ca2H26I4O13,3.8186999999999998
Ca2H2S2O7,5.0825
Ca2H2S2O9,5.4071
Ca2H2S2O9,5.114
Ca2H2S2O9,5.7578
Ca2H3Br,1.5364999999999998
Ca2H6Os,2.7001
Ca2H6Ru,2.4473
Ca2HN,1.6356000000000002
Ca2Hf7O16,4.3048
Ca2HfNbO6,0.0
Ca2HfO4,0.0
Ca2HfO4,3.8409999999999997
Ca2HfSnO6,3.5477000000000003
Ca2HfTiO6,2.4866
Ca2HfZrO6,3.4088000000000003
Ca2Hg,0.0
Ca2HgBi,0.0
Ca2HgGe,0.012799999999999923
Ca2HgPb,0.0
Ca2HoMn3O9,0.0
Ca2HoMn4BiO12,0.0
Ca2HoTaO6,4.0546999999999995
Ca2I4O13,0.9091000000000001
Ca2I4O13,0.5624
Ca2I4O13,0.0
Ca2IN,2.3484999999999996
Ca2In,0.0
Ca2In2O5,1.3036000000000003
Ca2In3Cu,0.0
Ca2In4Au3,0.0
Ca2InHg,0.0
Ca2InN,0.0
Ca2InOsO6,0.16949999999999932
Ca2InPb,0.0
Ca2InPd2,0.0
Ca2InPt2,0.0
Ca2InSbO6,1.4198000000000004
Ca2IrO4,0.0
Ca2IrPtO6,0.0
Ca2IrRhO6,0.0
Ca2IrWO6,1.1277
Ca2La2Cu3O8,0.0
Ca2La2MgTi3O12,2.0742000000000003
Ca2La2MgTi3O12,2.014900000000001
Ca2La2Ti3CuO12,0.0
Ca2La3Cu4AgO12,0.0
Ca2La3Si3O13,0.0
Ca2La4Ti5O18,2.3160999999999996
Ca2La5Mn7NiO24,0.0
Ca2La8Ti5Cr5O30,0.0
Ca2LaBeO5,0.0
Ca2LaF7,5.7899
Ca2LaGa(FeO4)2,1.7441000000000004
Ca2LaGaCu2O7,0.0
Ca2LaGeS4Cl3,2.4410000000000003
Ca2LaMn2O7,0.0
Ca2LaMn2O7,0.8753000000000002
Ca2LaMn3O9,0.0
Ca2LaNdMn4O12,0.30760000000000076
Ca2LaRuO6,0.4834999999999994
Ca2LaRuO6,0.42849999999999966
Ca2LaSbO6,3.4859999999999998
Ca2LaSbO6,3.7082000000000006
Ca2LaSbO6,3.5891
Ca2LaSbO6,2.9805
Ca2LaTaO6,4.0074000000000005
Ca2Mg,0.0
Ca2Mg,0.4273999999999998
Ca2Mg(CO3)3,4.588900000000001
Ca2Mg3Si,0.0
Ca2Mg5(SiO3)8,0.017300000000000093
Ca2Mg5Si8(HO12)2,4.8269
Ca2Mg5Si8(O11F)2,5.0192000000000005
Ca2MgAg3,0.0
Ca2MgAl2(SiO4)3,4.839600000000001
Ca2MgAl2(SiO4)3,4.887700000000001
Ca2MgAl2Si3O14,0.006399999999999739
Ca2MgAs2(H2O5)2,3.8560000000000003
Ca2MgB2H16(CO9)2,4.640300000000001
Ca2MgCd,0.0
Ca2MgFe(CO3)4,3.8773999999999997
Ca2MgFe(CO3)4,4.0794
Ca2MgFe(SiO3)4,3.5451
Ca2MgIn,0.0
Ca2MgN2,1.3316999999999997
Ca2MgP2(H2O5)2,5.3863
Ca2MgPd2,0.0
Ca2MgPt2,0.0
Ca2MgReO6,0.0
Ca2MgSi2O7,4.3919999999999995
Ca2MgSi2O7,4.467700000000001
Ca2MgSi2O7,4.233700000000001
Ca2MgTl,0.0
Ca2MgV10(H8O11)4,2.4519
Ca2MgWO6,3.6460000000000004
Ca2Mn(AsO5)2,0.5097
Ca2Mn(PO5)2,0.2117
Ca2Mn2(SiO4)3,1.0448
Ca2Mn2O5,0.0
Ca2Mn2O5,0.16679999999999984
Ca2Mn2O5,0.1820999999999997
Ca2Mn2Si4H6O17,0.07420000000000004
Ca2Mn2Si4H6O17,0.16849999999999987
Ca2Mn2Si4H8O17,1.2933000000000001
Ca2Mn2V3AgO12,1.8920999999999997
Ca2Mn3O8,0.8689999999999998
Ca2Mn3O8,1.2523
Ca2Mn3P3H6O17,0.8662000000000001
Ca2Mn3Si3H3O14,1.7368000000000006
Ca2Mn3Si3O14,0.0
Ca2Mn7Si10H12O35,2.7286
Ca2Mn7Si10H12O35,2.8581
Ca2Mn9O13,0.0
Ca2MnAl2Si3HO13,0.9432000000000005
Ca2MnAl2Si3O13,0.0
Ca2MnAl2Si4BO15,1.0655999999999999
Ca2MnAl2Si4BO16,0.0
Ca2MnAlO5,0.5726
Ca2MnAlO5,0.0
Ca2MnAs2(H2O5)2,2.2674
Ca2MnFeO5,0.0
Ca2MnFeSi4(HO3)5,1.7123000000000004
Ca2MnGaO5,0.7963
Ca2MnGaO5,0.0
Ca2MnIrO6,0.0
Ca2MnN2,0.0
Ca2MnN3,0.0
Ca2MnNb2O8,2.5422
Ca2MnNbO6,0.0
Ca2MnNiO6,0.0
Ca2MnO3,1.7783000000000002
Ca2MnO4,0.0
Ca2MnP2(H2O5)2,4.1295
Ca2MnReO6,0.14720000000000066
Ca2MnRuO6,0.0
Ca2MnSbO6,0.8200000000000003
Ca2MnSbO6,1.4728999999999997
Ca2MnSbO6,0.0
Ca2MnWO6,2.6622999999999997
Ca2MnWO6,2.5151000000000003
Ca2MnWO6,2.1846999999999994
Ca2Mo3O8,1.6638000000000002
Ca2MoN3,0.0
Ca2MoWO6,1.9254000000000007
Ca2MoWO6,1.5816
Ca2N,0.0
Ca2NCl,2.371
Ca2NF,1.9758999999999998
Ca2NF,1.6841
Ca2NF,1.2123999999999997
Ca2Nb10Si9(SO8)9,0.8707000000000001
Ca2Nb2BiO8,0.0
Ca2Nb2CoO8,2.5639
Ca2Nb2CoO9,0.9124999999999999
Ca2Nb2CrO8,1.6063999999999998
Ca2Nb2CuO8,0.2998000000000003
Ca2Nb2FeO8,2.4428
Ca2Nb2MoO8,0.0
Ca2Nb2NiO8,2.8118000000000003
Ca2Nb2O7,3.011
Ca2Nb2O7,1.4400000000000004
Ca2Nb2O7,2.8646000000000003
Ca2Nb2SbO8,0.0
Ca2Nb2SiS5O24,0.9383
Ca2Nb2SnO8,2.1994999999999996
Ca2Nb3CuBrO10,0.0
Ca2Nb4P6(SO12)3,2.4775
Ca2Nb4Si3(SO6)6,1.7642
Ca2NbCrO6,2.7637000000000005
Ca2NbFeO6,2.0870999999999995
Ca2NbInO6,3.4631999999999996
Ca2NbInO6,3.2523999999999997
Ca2NbN3,1.7961
Ca2Nd2MnNiO8,0.0
Ca2Nd2Nb3FeO14,2.3154999999999997
Ca2Nd2Nb3FeO14,2.3551
Ca2Nd3Si3O13,0.0
Ca2NdF7,5.2616
Ca2NdNbO6,3.5065
Ca2NdRuO6,0.49929999999999986
Ca2NdTaO6,4.256600000000001
Ca2Ni10H,0.0
Ca2Ni12As7,0.0
Ca2Ni2O5,0.0
Ca2Ni3Ge2,0.0
Ca2Ni3O8,0.4121999999999999
Ca2Ni3O8,0.9173999999999998
Ca2Ni7,0.0
Ca2Ni7P4,0.0
Ca2Ni9O13,0.0
Ca2NiBiO6,0.0
Ca2NiIrO6,0.0
Ca2NiN2,0.0
Ca2NiOsO6,0.0
Ca2NiSbO6,0.0
Ca2NiWO6,0.5975000000000001
Ca2NiWO6,2.9330000000000003
Ca2NiWO6,2.9269
Ca2Os2O7,0.0
Ca2OsN3,0.0
Ca2P2H4O9,5.0576
Ca2P2H8O11,4.854299999999999
Ca2P2O7,5.3635
Ca2P2O7,5.4165
Ca2P3Pb3ClO12,4.0710999999999995
Ca2P4H11NO18,2.0712
Ca2P6O17,5.3661
Ca2P7Ir12,0.0
Ca2PClO4,5.3770999999999995
Ca2PI,1.6997000000000004
Ca2PI,1.5958999999999994
Ca2PN3,2.601800000000001
Ca2Pb,0.6495000000000002
Ca2Pb,0.0
Ca2PbAu,0.0
Ca2PbAu2,0.0
Ca2PbN2,0.0
Ca2PbO4,1.4813
Ca2PdAu,0.0
Ca2PdN2,0.0
Ca2PdPt,0.0
Ca2Pr19(CoI12)3,0.0
Ca2Pr2MnNiO8,1.3451999999999997
Ca2Pr4(Mo2O7)3,0.19340000000000046
Ca2PrBeO5,0.0
Ca2PrGaCu2O7,0.0
Ca2PrO4,0.0
Ca2Pt3O8,1.1236000000000002
Ca2PtAu,0.0
Ca2ReN3,0.0
Ca2Rh,0.0
Ca2Ru2O7,0.0
Ca2RuN3,0.0
Ca2RuO4,0.0
Ca2S2O9,1.0726
Ca2S2O9,0.0
Ca2S2O9,0.9261999999999999
Ca2S2O9,0.8304999999999999
Ca2Sb,0.0
Ca2Sb2O5,1.5487000000000002
Ca2Sb2O7,0.0
Ca2Sb2O7,1.7433999999999998
Ca2Sb2S5,1.4826000000000001
Ca2Sb3O8,0.0
Ca2Sb4Pd3,0.0
Ca2SbAu,0.1936
Ca2SbMoO6,0.4734999999999996
Ca2SbN3,1.2394999999999996
Ca2SbWO6,2.1973
Ca2SbWO6,0.47630000000000017
Ca2SbWO6,1.4767000000000001
Ca2ScNbO6,3.1457000000000006
Ca2ScOsO6,0.0
Ca2ScP3Pt7,0.0
Ca2ScReO6,0.0
Ca2ScSbO6,3.6317999999999997
Ca2ScTaO6,3.7337999999999996
Ca2Se3O8,3.433
Ca2Se4O11,0.5929
Ca2Si,0.5509000000000004
Ca2Si,0.2915000000000001
Ca2Si3Ag,0.0
Ca2Si3Ni,0.0
Ca2Si3Pb3O11,3.2434
Ca2Si3PbO9,4.3821
Ca2Si5N8,3.344899999999999
Ca2Si5N8,3.6460999999999997
Ca2Si5Pt3,0.0
Ca2SiB2O7,5.6806
Ca2SiB5H5O14,5.409000000000001
Ca2SiB5O14,0.029600000000000015
Ca2SiCl2O3,5.1049
Ca2SiH2O5,4.6543
Ca2SiIr2,0.0
Ca2SiO4,4.1738
Ca2SiO4,4.1932
Ca2SiO4,4.7352
Ca2SiO4,4.3706
Ca2SiO4,4.6781
Ca2SiO4,4.199400000000001
Ca2SiO4,4.5153
Ca2SiO4,4.4276
Ca2SiO4,4.2052000000000005
Ca2SiO4,4.030899999999999
Ca2SiO4,4.053000000000001
Ca2SiO4,4.1639
Ca2SiO4,4.3558
Ca2SiO4F,0.3509
Ca2SiS4,3.1115
Ca2SiSe4,2.4024
Ca2SmYMn4O12,0.0
Ca2Sn,0.6619999999999999
Ca2Sn,0.05590000000000028
Ca2Sn2O5,1.1584999999999992
Ca2Sn3O8,2.0574
Ca2Sn3O8,2.4627
Ca2Sn3S8,1.1330999999999998
Ca2Sn5Pt3,0.0
Ca2SnGe2,0.0
Ca2SnHg,0.1485000000000003
Ca2SnIrO6,0.0
Ca2SnN2,0.007899999999999352
Ca2SnN2,0.0
Ca2SnO4,2.7198
Ca2SnS4,9.999999999976694e-05
Ca2SnS4,1.8182
Ca2SnS4,2.0314999999999994
Ca2SnS4,2.2605
Ca2SnS4,1.9266
Ca2SnS4,1.6014999999999997
Ca2SnS4,1.0654000000000003
Ca2SnS4,0.8649000000000004
Ca2SnS4,2.4422999999999995
Ca2SnS4,2.0265
Ca2SnS4,1.0856
Ca2SnS4,0.8674
Ca2SnS4,1.0664000000000002
Ca2SnS4,1.7687999999999997
Ca2SnS4,1.3308
Ca2SnS4,2.2367
Ca2SnS4,1.3963999999999999
Ca2SnSbO6,0.0
Ca2SnWO6,1.476
Ca2SnWO6,2.0470000000000006
Ca2Ta10Si9(SO8)9,1.3408
Ca2Ta2CoO8,2.6566
Ca2Ta2CrO8,2.1716
Ca2Ta2CuO8,0.6813000000000002
Ca2Ta2FeO8,3.2757000000000005
Ca2Ta2MnO8,3.2913
Ca2Ta2NiO8,3.5124
Ca2Ta2O6F,0.0
Ca2Ta2O7,2.2952
Ca2Ta2O7,3.1222000000000003
Ca2Ta2O7,3.3532
Ca2Ta2SiS5O24,1.4457
Ca2Ta2SnO8,2.7348
Ca2Ta2TiO8,0.0
Ca2Ta2VO8,1.1227
Ca2Ta3CuBrO10,0.0
Ca2Ta4P6(SO12)3,3.1813
Ca2Ta4Si3(SO6)6,2.3457999999999997
Ca2TaAgO6,0.4497
Ca2TaBiO6,1.8271999999999995
Ca2TaCoO6,0.36119999999999974
Ca2TaCrO6,2.7922000000000002
Ca2TaCrO6,2.6351999999999998
Ca2TaCuO6,0.0
Ca2TaFeO6,1.2064
Ca2TaInO6,3.8494
Ca2TaMnO6,0.48080000000000034
Ca2TaMoO6,1.4283000000000001
Ca2TaN3,1.9592000000000005
Ca2TaNiO6,0.42569999999999997
Ca2TaSbO6,0.8163
Ca2TaSnO6,0.0
Ca2TaTiO6,0.0
Ca2TaVO6,0.4314999999999998
Ca2TaWO6,2.1053000000000006
Ca2TaWO6,0.0
Ca2TaWO6,2.2589000000000006
Ca2TbFeO6,0.36160000000000014
Ca2TbMn3O9,0.0
Ca2TbSbO6,3.1757999999999997
Ca2TeWO6,1.5348999999999995
Ca2Th(Si2O5)4,4.986599999999999
Ca2Ti2O5,0.0
Ca2Ti2SiGeO10,2.7614
Ca2Ti3O8,2.4456999999999995
Ca2Ti3O8,2.7744
Ca2Ti5(Bi2O9)2,2.2698
Ca2Ti6N2O11,2.0837000000000003
Ca2Ti6N2O11,1.7912999999999997
Ca2Ti6N2O11,2.0854000000000004
Ca2Ti6N2O11,1.8034999999999997
Ca2Ti6N2O11,2.1616999999999997
Ca2Ti9O13,0.0
Ca2TiAlO5,0.0
Ca2TiAlSi2O9F,3.2274
Ca2TiAlSi2O9F,3.0731
Ca2TiCrO6,1.1492
Ca2TiIrO6,0.0
Ca2TiMnO6,0.9545999999999997
Ca2TiMnO6,1.9470000000000005
Ca2TiN2,0.0
Ca2TiNb2O8,0.0472999999999999
Ca2TiO4,1.6073
Ca2TiRuO6,0.0
Ca2TiSbO6,0.0
Ca2TiSi2SnO10,3.0821
Ca2TiSiO6,2.3708
Ca2TiWO6,0.39890000000000025
Ca2TiWO6,0.0
Ca2Tl2O5,1.1670000000000003
Ca2Tl2O5,0.8173999999999997
Ca2TlCd,0.0
Ca2TlHg,0.0
Ca2TlIn,0.0
Ca2TlPb,0.0
Ca2TlSn,0.0
Ca2TlZn,0.0
Ca2TmRuO6,0.28600000000000003
Ca2UO5,1.8516
Ca2V2O5,0.0
Ca2V2O7,2.9553000000000003
Ca2V2PbO8,3.2257
Ca2V3Co2AgO12,1.6195000000000004
Ca2V3Ni2AgO12,1.79
Ca2V3O8,1.6111
Ca2V3O8,1.4962999999999997
Ca2V3O8,1.9017
Ca2VBiO6,3.0645000000000002
Ca2VClO4,3.4639000000000006
Ca2VFe4BiO12,1.0957
Ca2VIrO6,0.43120000000000047
Ca2VMoO6,0.6962000000000002