formula,band_gap
Li3CN2,0.4981
Li3Ca,0.0
Li3CaMnN3,0.07319999999999993
Li3CaPCO7,4.872999999999999
Li3Cd,0.0
Li3Ce2(BO3)3,0.2344999999999997
Li3Ce4B12(H12Cl)4,0.05849999999999997
Li3CeBi2,0.0
Li3CeGa8,0.0
Li3CeSb2,0.0
Li3ClO,4.6766000000000005
Li3Co(BO2)5,3.0380000000000003
Li3Co(BO3)2,1.1890999999999998
Li3Co(BO3)2,1.0504
Li3Co(BO3)2,0.8825000000000001
Li3Co(CuO2)4,0.0
Li3Co(NO2)6,2.3954999999999997
Li3Co(NiO2)4,0.0
Li3Co(NiO3)2,0.0
Li3Co(OF)2,1.2644
Li3Co(PO4)2,0.8172999999999999
Li3Co13O16,0.0
Li3Co13O5F19,2.2250000000000005
Li3Co2(CO3)4,0.6923
Li3Co2(CO3)4,0.7432
Li3Co2(CO3)4,0.6345999999999999
Li3Co2(CO3)4,0.673
Li3Co2(CO3)4,0.9728
Li3Co2(CO3)4,0.6341
Li3Co2(CO3)4,0.7120000000000001
Li3Co2(GeO4)2,0.0676
Li3Co2(GeO4)2,0.0
Li3Co2(GeO4)3,0.0
Li3Co2(NiO4)2,0.0
Li3Co2(PO4)3,0.8677999999999999
Li3Co2(PO4)3,0.8867000000000003
Li3Co2(PO4)3,0.7849000000000002
Li3Co2(PO4)3,0.9897
Li3Co2(PO4)3,0.02629999999999999
Li3Co2(SiO4)2,0.5561
Li3Co2(SiO4)2,0.5112000000000001
Li3Co2(SiO4)2,0.3763000000000001
Li3Co2(SiO4)2,0.4292
Li3Co2(SiO4)2,0.0
Li3Co2(SiO4)2,0.040200000000000014
Li3Co2(SiO4)2,0.2125999999999999
Li3Co2(SiO4)2,0.12490000000000001
Li3Co2(SiO4)2,0.37850000000000006
Li3Co2(SiO4)2,0.5178
Li3Co2(SiO4)2,0.3883000000000001
Li3Co2(SiO4)2,0.2174999999999998
Li3Co2(SiO4)2,0.02200000000000002
Li3Co2(SiO4)2,0.14669999999999983
Li3Co2Cu3O10,0.0
Li3Co2CuO6,0.0
Li3Co2Ni3O10,0.0
Li3Co2NiO6,0.0
Li3Co2NiO6,0.32319999999999993
Li3Co2O2F3,0.0
Li3Co2O5,1.0581
Li3Co2O5,0.0
Li3Co2O5,0.30580000000000007
Li3Co2O5,0.3162999999999996
Li3Co2O5,0.2913999999999999
Li3Co2O5,0.7234999999999998
Li3Co2O5,0.20710000000000006
Li3Co2O5,0.36809999999999965
Li3Co2O5,0.08150000000000013
Li3Co2O5,0.46850000000000014
Li3Co2O5,0.031700000000000284
Li3Co2OF5,1.3195999999999999
Li3Co2OF5,1.5355999999999999
Li3Co2P2(O4F)2,0.0
Li3Co2P5O16,3.2819999999999996
Li3Co2RuO6,0.0
Li3Co2SbO6,0.5606999999999998
Li3Co2Si3O10,0.0
Li3Co2Si3O10,0.9287999999999998
Li3Co2Si3O10,0.43800000000000017
Li3Co2SnO6,0.032399999999999984
Li3Co3(Ge3O8)2,0.0
Li3Co3(PO4)4,0.8463999999999999
Li3Co3(PO4)4,0.38749999999999996
Li3Co3(PO4)4,0.0
Li3Co3(PO4)4,0.7309000000000001
Li3Co3CuO8,0.0
Li3Co3NiO8,0.0
Li3Co3OF7,2.3194
Li3Co3OF7,2.3176
Li3Co3OF7,2.8048
Li3Co3SbO8,0.8933
Li3Co3SbO8,0.5684999999999998
Li3Co3SbO8,0.21189999999999998
Li3Co3SbO8,0.0
Li3Co3SbO8,0.3571
Li3Co3TeO8,0.0
Li3Co3TeO8,0.4501999999999997
Li3Co4(BO3)4,0.22420000000000018
Li3Co4CuO8,0.0
Li3Co4NiO8,0.0
Li3Co4O4F3,0.0
Li3Co4SbO8,1.3648999999999996
Li3Co4SnO8,0.5076999999999998
Li3Co4SnO8,0.0
Li3Co4SnO8,0.6652999999999998
Li3Co4SnO8,0.4558
Li3Co4TeO8,0.0
Li3Co4WO8,1.3286999999999995
Li3Co5OF11,2.6076
Li3Co5OF11,2.4212
Li3Co8(OF3)4,0.0
Li3CoBO4,1.7308000000000003
Li3CoF6,2.9404000000000003
Li3CoN2,0.0
Li3CoNi3O8,0.0
Li3CoNi3O8,0.09489999999999998
Li3CoO2F,1.8001999999999998
Li3CoO2F,1.3231000000000002
Li3CoO3,1.2294
Li3CoOF3,0.8489999999999998
Li3CoOF3,0.10860000000000003
Li3CoOF3,2.0876
Li3CoPCO7,2.4226
Li3CoPCO7,3.018
Li3CoPCO7,2.4231
Li3CoPCO7,2.8354
Li3CoPCO7,2.4047
Li3CoPCO7,2.4064
Li3CoPCO7,2.8741000000000003
Li3CoPCO7,2.8343999999999996
Li3CoPCO7,2.2664999999999997
Li3CoPCO7,1.9682
Li3CoPCO7,2.297
Li3CoPCO7,2.6370999999999998
Li3CoPO5,0.0
Li3CoRuO5,0.0
Li3CoSiBO7,0.0
Li3CoSiBO7,0.02519999999999989
Li3CoSiCO7,0.8796999999999999
Li3CoSiO5,0.8665
Li3Cr(BO3)2,1.7919000000000003
Li3Cr(BO3)2,3.0780000000000003
Li3Cr(BO3)2,2.8884
Li3Cr(CO3)3,2.1942
Li3Cr(CoO2)4,0.0
Li3Cr(CoO3)2,0.9438000000000004
Li3Cr(CoO3)2,1.7583000000000002
Li3Cr(CoO3)2,1.1587
Li3Cr(CoO3)2,0.4559000000000002
Li3Cr(CoO3)2,1.7898999999999998
Li3Cr(CoO3)2,0.4740999999999995
Li3Cr(FeO2)4,0.0
Li3Cr(FeO3)2,1.1506000000000003
Li3Cr(NiO2)4,0.0
Li3Cr(NiO3)2,0.0
Li3Cr(PO3)8,0.0
Li3Cr(PO4)2,0.0
Li3Cr(PO4)2,2.6416999999999997
Li3Cr(PO4)2,2.6716
Li3Cr(PO4)2,2.6333999999999995
Li3Cr(PO4)2,2.6700000000000004
Li3Cr(PO4)2,1.9816000000000003
Li3Cr(PO4)2,1.3436999999999997
Li3Cr(PO4)2,2.4720999999999997
Li3Cr(PO4)2,1.748
Li3Cr(PO4)2,2.0410000000000004
Li3Cr(PO4)2,2.7229
Li3Cr(PO4)2,2.8064
Li3Cr(Si2O5)3,3.5054000000000003
Li3Cr(Si2O5)3,3.2396000000000003
Li3Cr(Si2O5)3,3.6037999999999997
Li3Cr10Fe5O24,1.1606999999999998
Li3Cr13Ni3(SO4)24,2.2487
Li3Cr2(AsO4)3,2.6701999999999995
Li3Cr2(CoO4)2,0.6496999999999997
Li3Cr2(CoO4)2,0.0
Li3Cr2(FeO4)2,0.5640000000000001
Li3Cr2(GeO4)3,0.0
Li3Cr2(NiO4)2,0.0
Li3Cr2(PO4)3,2.2562
Li3Cr2(PO4)3,2.9463000000000004
Li3Cr2(PO4)3,2.9063000000000003
Li3Cr2(PO4)3,2.8178000000000005
Li3Cr2(PO4)3,1.8925000000000005
Li3Cr2(PO4)3,2.8815
Li3Cr2(PO4)3,2.6651999999999996
Li3Cr2(PO4)3,3.1279
Li3Cr2(PO4)3,2.2633999999999994
Li3Cr2(PO4)3,2.6795
Li3Cr2(PO4)3,3.0089000000000006
Li3Cr2(PO4)3,1.4381
Li3Cr2(PO4)3,2.096
Li3Cr2(PO4)3,2.8011
Li3Cr2(PO4)3,2.7254
Li3Cr2(PO4)3,2.7965
Li3Cr2(PO4)3,2.9720999999999997
Li3Cr2(PS4)3,1.2201
Li3Cr2CoO6,0.6904999999999997
Li3Cr2Fe3O10,1.1206
Li3Cr2Fe5O12,0.0
Li3Cr2FeO6,1.6802999999999995
Li3Cr2NiO6,0.0
Li3Cr2P2(CO7)2,0.11119999999999997
Li3Cr2P2(O4F)2,1.4299000000000004
Li3Cr2P4HO14,0.0
Li3Cr2P5O16,2.3727
Li3Cr2P5O18,0.0
Li3Cr3(CoO6)2,0.7384999999999999
Li3Cr3(NiO6)2,0.7284999999999999
Li3Cr3(PO4)4,2.442
Li3Cr3(PO4)4,1.8601999999999999
Li3Cr3(PO4)4,1.9048
Li3Cr3(PO4)4,1.4399000000000002
Li3Cr3(PO4)4,1.976
Li3Cr3CoO8,0.0
Li3Cr3CoO8,0.6934
Li3Cr3CoO8,0.5210999999999997
Li3Cr3FeO8,0.0
Li3Cr3FeO8,0.7277
Li3Cr3GaO8,0.0
Li3Cr3NiO8,0.3500000000000001
Li3Cr3NiO8,0.0
Li3Cr3SiO8,2.7547
Li3Cr4(PO4)6,0.0
Li3Cr4(PO4)6,0.04160000000000008
Li3Cr4(PO4)6,0.07020000000000004
Li3Cr4FeO8,0.8321000000000005
Li3Cr4O8,0.46850000000000014
Li3Cr4P2O8F9,0.9551999999999998
Li3Cr4P5O24,0.9490999999999999
Li3Cr4P5O24,0.9424000000000001
Li3Cr4P9O32,0.22520000000000007
Li3Cr5O10,0.0
Li3Cr5O8,0.0
Li3Cr5O8,0.5731999999999999
Li3Cr5O8,0.7397999999999998
Li3CrB4O9,1.7649000000000001
Li3CrBAsO7,2.627
Li3CrBO5,1.5616000000000003
Li3CrBPO7,3.1695999999999995
Li3CrClO4,2.2008
Li3CrCo3O8,0.36430000000000007
Li3CrCo3O8,0.7915999999999999
Li3CrCo3O8,0.0
Li3CrF6,3.9644000000000004
Li3CrF6,1.8349000000000002
Li3CrF6,3.7071000000000005
Li3CrFe3O8,0.0
Li3CrFe3O8,0.28210000000000024
Li3CrFe3O8,0.5903
Li3CrFe3O8,0.28439999999999976
Li3CrH12(CO3)6,0.0
Li3CrN2,0.0
Li3CrNi3O8,0.0
Li3CrO3,0.6804999999999999
Li3CrO4,1.0152
Li3CrO4,1.0166
Li3CrO4,0.7050000000000001
Li3CrO4,0.23070000000000013
Li3CrO4,0.8956999999999999
Li3CrO4,0.0
Li3CrO4,0.22940000000000005
Li3CrO4,0.4556
Li3CrO4,1.3019999999999998
Li3CrP2HO8,2.4359
Li3CrP2O9,0.0
Li3CrPCO7,0.0
Li3CrPCO7,1.9515999999999996
Li3CrPCO7,1.8953000000000002
Li3CrPCO7,2.6266
Li3CrPCO7,2.4109999999999996
Li3CrPCO7,2.4109
Li3CrPCO7,2.191
Li3CrPCO7,2.7651
Li3CrPCO7,2.4083
Li3CrPCO7,2.4991999999999996
Li3CrS4,0.0
Li3CrSi2O7,2.3964
Li3CrSi2O7,2.715
Li3CrSiBO7,0.6769000000000001
Li3CrSiCO7,2.8655
Li3CrSiO5,2.678
Li3CrSiO5,3.1273
Li3Cu,0.0
Li3Cu(NiO2)4,0.0
Li3Cu(NiO3)2,0.0
Li3Cu(PO4)2,0.0
Li3Cu(PO4)2,0.031
Li3Cu(TeO3)4,0.0
Li3Cu2(SO4)3,0.0
Li3Cu2(SO4)3,3.3870000000000005
Li3Cu2(WO4)4,0.0
Li3Cu2F7,0.0
Li3Cu2F8,0.0
Li3Cu2F8,0.007500000000000062
Li3Cu2Ni5O12,0.09109999999999996
Li3Cu2P5O16,0.0
Li3Cu2SbO6,0.029800000000000715
Li3Cu3(PO4)2,0.7068000000000003
Li3Cu3(PO4)2,0.3038999999999996
Li3Cu3(PO4)2,0.7763
Li3Cu3(PO4)2,0.6345999999999998
Li3Cu3(PO4)2,1.0093999999999994
Li3Cu3(PO4)2,0.6978
Li3Cu3(PO4)2,0.7242999999999995
Li3Cu3(PO4)2,0.7500999999999998
Li3Cu3(PO4)2,0.7711000000000006
Li3Cu3(PO4)2,0.7003000000000004
Li3Cu3TeO8,0.0
Li3Cu4F15,0.0
Li3Cu4F9,0.0
Li3Cu4NiO8,0.0
Li3Cu4SbO8,0.0
Li3Cu4SnO8,0.0
Li3Cu4TeO8,0.0
Li3Cu5O4,0.9533999999999998
Li3Cu5O8,0.0
Li3CuAsCO7,0.14360000000000017
Li3CuB3O7,0.4353999999999998
Li3CuF4,0.9630999999999998
Li3CuF4,0.8418999999999999
Li3CuF5,0.32400000000000007
Li3CuF6,0.3336999999999999
Li3CuF6,0.33330000000000015
Li3CuF6,0.6098
Li3CuF6,0.33620000000000005
Li3CuF6,0.33340000000000014
Li3CuF6,0.8733
Li3CuNi3O8,0.0
Li3CuO2,2.1601
Li3CuO3,0.9644
Li3CuOF3,0.32820000000000005
Li3CuP2O7,1.2101999999999995
Li3CuPCO7,0.1737000000000002
Li3CuPCO7,0.15739999999999998
Li3CuPO5,0.0
Li3CuS2,2.0335000000000005
Li3CuS2,2.0500999999999996
Li3CuS2,1.9809999999999999
Li3CuS2,1.9031000000000002
Li3CuS2,2.3307
Li3CuS2,2.0526000000000004
Li3CuS2,2.7476999999999996
Li3CuS3,0.29600000000000004
Li3CuSbO5,0.0
Li3CuSiCO7,0.0
Li3CuSiO4,0.8529999999999998
Li3Dy(NO3)6,3.1081000000000003
Li3Dy3(TeO6)2,3.5476999999999994
Li3DySb2,0.0
Li3Er(NO3)6,3.1386000000000003
Li3Er3(TeO6)2,3.5823
Li3ErBr6,4.4222
Li3ErBr6,4.3485
Li3ErCl6,5.2109000000000005
Li3Eu,0.0
Li3Eu3(TeO6)2,0.08360000000000012
Li3Fe(BO2)5,3.645
Li3Fe(BO3)2,2.1759
Li3Fe(BO3)2,2.1825
Li3Fe(BO3)2,1.6448000000000003
Li3Fe(BO3)2,1.911
Li3Fe(CO3)3,1.8911999999999998
Li3Fe(CoO2)4,0.0
Li3Fe(CoO3)2,0.2848999999999995
Li3Fe(CuO2)4,0.0
Li3Fe(CuO3)2,0.07679999999999998
Li3Fe(MoO4)3,2.304
Li3Fe(Ni2O5)2,0.0
Li3Fe(NiO2)4,0.0
Li3Fe(NiO3)2,0.0
Li3Fe(OF)2,2.1982999999999997
Li3Fe(PO3)8,2.6742
Li3Fe(PO4)2,2.3294
Li3Fe(PO4)2,1.6401
Li3Fe(PO4)2,1.9049999999999998
Li3Fe(PO4)2,1.9057
Li3Fe(PO4)2,2.4926999999999997
Li3Fe(PO4)2,1.1261
Li3Fe(PO4)2,1.1543999999999999
Li3Fe(PO4)2,1.9917999999999996
Li3Fe(PO4)2,1.7471
Li3Fe(PO4)2,1.0627
Li3Fe(PO4)2,2.24
Li3Fe(PO4)2,2.5097
Li3Fe(PO4)2,1.8868
Li3Fe(PO4)2,1.8955999999999997
Li3Fe(PO4)2,2.1808999999999994
Li3Fe(PO4)2,2.16
Li3Fe(PO4)2,2.2931
Li3Fe(SbO3)4,0.0
Li3Fe(Si2O5)3,4.748600000000001
Li3Fe(Si2O5)3,4.456099999999999
Li3Fe(Si2O5)3,3.6605999999999996
Li3Fe10O7F9,1.4340000000000002
Li3Fe2(AsO4)3,2.5266
Li3Fe2(BO4)2,0.0
Li3Fe2(CO3)4,1.7107
Li3Fe2(CO3)4,1.2538
Li3Fe2(CO4)2,2.0545999999999998
Li3Fe2(CoO4)2,0.0
Li3Fe2(CuO4)2,0.0
Li3Fe2(GeO4)3,0.0
Li3Fe2(NiO4)2,0.0
Li3Fe2(OF)3,0.984
Li3Fe2(P2O7)2,0.3940999999999999
Li3Fe2(P2O7)2,0.08589999999999987
Li3Fe2(P2O7)2,1.0356
Li3Fe2(PO3)7,4.0258
Li3Fe2(PO4)3,2.1807
Li3Fe2(PO4)3,2.6074
Li3Fe2(PO4)3,2.4969
Li3Fe2(PO4)3,1.3953000000000002
Li3Fe2(PO4)3,1.9116000000000002
Li3Fe2(PO4)3,2.5408
Li3Fe2(PO4)3,2.1715
Li3Fe2(PO4)3,2.4096
Li3Fe2(PO4)3,2.1672000000000002
Li3Fe2(PO4)3,0.5349000000000002
Li3Fe2(PO4)3,1.8979000000000001
Li3Fe2(PO4)3,2.3800999999999997
Li3Fe2(PO4)3,2.1855
Li3Fe2(PO4)3,1.9001
Li3Fe2(PO4)3,2.4012
Li3Fe2(PO4)3,2.2652
Li3Fe2(PO4)3,2.5377
Li3Fe2(PO5)2,0.0
Li3Fe2(SiO4)2,0.0
Li3Fe2(SiO4)2,1.6067999999999998
Li3Fe2(SiO4)2,1.5291000000000001
Li3Fe2(SiO4)2,1.8254
Li3Fe2(SiO4)2,1.4957
Li3Fe2(SiO4)2,1.6962000000000002
Li3Fe2(SiO4)2,1.1402999999999999
Li3Fe2(SiO4)2,1.3468
Li3Fe2(SiO4)2,1.8961000000000001
Li3Fe2(SiO4)2,1.0869
Li3Fe2(SiO4)2,1.0859999999999999
Li3Fe2(SiO4)2,1.6844000000000001
Li3Fe2(SiO4)2,0.5579000000000001
Li3Fe2(SiO4)2,0.5410999999999997
Li3Fe2(SiO4)2,1.0827
Li3Fe2(SiO4)2,1.9231999999999998
Li3Fe2(SiO4)2,1.854
Li3Fe2Co3O10,0.0
Li3Fe2CoO6,2.1016
Li3Fe2CoO6,1.8732000000000002
Li3Fe2CoO6,0.2833999999999999
Li3Fe2CuO6,0.3397
Li3Fe2F7,5.1282
Li3Fe2F7,3.4986
Li3Fe2F9,3.7009
Li3Fe2F9,3.6305
Li3Fe2Ni3O10,0.0
Li3Fe2Ni5O12,0.0
Li3Fe2NiO6,0.0
Li3Fe2OF5,2.8709
Li3Fe2OF5,2.9996
Li3Fe2OF5,2.7437999999999994
Li3Fe2P2(CO7)2,0.0
Li3Fe2P2(CO7)2,0.013800000000000007
Li3Fe2P2(CO7)2,0.06540000000000001
Li3Fe2P2(CO7)2,1.8939
Li3Fe2P2(O4F)2,1.5577
Li3Fe2P4HO14,4.2043
Li3Fe2P4HO14,4.0847999999999995
Li3Fe2P5O16,3.5993
Li3Fe2SbO6,0.0
Li3Fe2SnO6,0.0
Li3Fe3(BO3)4,1.3764999999999998
Li3Fe3(OF)4,1.4232999999999998
Li3Fe3(PO4)4,2.1425
Li3Fe3(PO4)4,1.9196999999999997
Li3Fe3(PO4)4,2.0208
Li3Fe3(PO4)4,2.1902999999999997
Li3Fe3(PO4)4,2.2551
Li3Fe3(PO4)4,1.6366
Li3Fe3(PO4)4,1.3678000000000001
Li3Fe3(PO4)4,1.9448000000000003
Li3Fe3(SnO5)2,1.6923000000000004
Li3Fe3(WO6)2,2.298
Li3Fe3CoO8,0.0
Li3Fe3CuO8,0.0
Li3Fe3NiO8,0.0
Li3Fe3NiO8,0.6269
Li3Fe3O8,0.049000000000000155
Li3Fe3O8,0.09899999999999998
Li3Fe3O8,0.1694
Li3Fe3O8,0.21110000000000007
Li3Fe3O8,0.0
Li3Fe3OF7,2.7048
Li3Fe3OF7,2.7484
Li3Fe3OF7,3.5612000000000004
Li3Fe3P8O29,0.0
Li3Fe3SbO8,0.13780000000000037
Li3Fe3SbO8,0.5578999999999996
Li3Fe3SiO8,1.1069999999999998
Li3Fe3TeO8,0.0
Li3Fe3TeO8,0.8364000000000003
Li3Fe3WO8,1.2266
Li3Fe4(BO3)4,1.5164
Li3Fe4(BO3)4,0.8335999999999997
Li3Fe4(BO3)4,1.3159999999999998
Li3Fe4(BO3)4,1.5781000000000003
Li3Fe4(BO3)4,1.3894000000000002
Li3Fe4(BO3)4,1.8227
Li3Fe4(BO3)4,1.1155
Li3Fe4(BO3)4,1.1101999999999999
Li3Fe4(BO3)4,1.3888000000000003
Li3Fe4(BO3)4,1.6637
Li3Fe4(BO3)4,1.3877000000000002
Li3Fe4(BO3)4,1.3589
Li3Fe4(BO3)4,1.2706
Li3Fe4(BO3)4,0.020500000000000185
Li3Fe4(BO3)4,1.3878000000000001
Li3Fe4(OF3)3,1.9361000000000002
Li3Fe4(OF3)3,1.749
Li3Fe4(OF3)3,2.1938
Li3Fe4(P2O7)4,0.0041999999999999815
Li3Fe4(P2O7)4,0.0
Li3Fe4(PO4)6,0.0
Li3Fe4(Si3O10)2,0.05409999999999998
Li3Fe4CoO8,0.0
Li3Fe4CuO8,0.0
Li3Fe4F19,0.0
Li3Fe4NiO8,0.9708999999999999
Li3Fe4O3F5,2.0659
Li3Fe4P3H12O19,0.07379999999999987
Li3Fe4P9O32,0.0
Li3Fe4SbO8,1.513
Li3Fe4SnO8,0.5775999999999994
Li3Fe4WO8,0.8864000000000001
Li3Fe5(CoO6)2,0.2932999999999999
Li3Fe5(NiO6)2,0.0
Li3Fe5(PO4)6,2.3546
Li3Fe5(PO4)6,1.3752999999999997
Li3Fe5O12,0.0
Li3Fe5O8,0.0
Li3Fe5O9,1.4018000000000002
Li3Fe5OF11,0.3645999999999998
Li3Fe5OF11,2.9877
Li3Fe7O12,0.5863999999999998
Li3Fe8(BO3)8,1.8065999999999998
Li3Fe8(BO3)8,1.6148999999999998
Li3Fe8(BO3)8,1.3940000000000001
Li3Fe8(BO3)8,1.4018000000000002
Li3Fe8(BO3)8,1.4476
Li3Fe8(BO3)8,1.1158
Li3Fe8(BO3)8,1.2487
Li3Fe8(BO3)8,1.6965000000000001
Li3Fe8(BO3)8,0.8362999999999998
Li3Fe8(BO3)8,0.016599999999999948
Li3Fe8(BO3)8,1.5066000000000002
Li3Fe8(BO3)8,1.4078000000000002
Li3Fe8(BO3)8,1.4945000000000002
Li3Fe8(BO3)8,1.1153
Li3Fe8(BO3)8,1.6831000000000003
Li3Fe8(BO3)8,1.3929000000000002
Li3Fe8(BO3)8,1.1171999999999997
Li3Fe8(BO3)8,1.6683999999999999
Li3Fe8(BO3)8,1.3969999999999998
Li3Fe8(BO3)8,0.8367
Li3Fe8(BO3)8,1.4546
Li3Fe8(BO3)8,1.496
Li3Fe8(BO3)8,1.4555
Li3Fe8(BO3)8,1.4157000000000002
Li3Fe8(BO3)8,1.3091000000000002
Li3Fe8(BO3)8,1.6373
Li3Fe8(BO3)8,1.7432999999999998
Li3Fe8(BO3)8,1.3453
Li3Fe8(BO3)8,1.566
Li3Fe8(BO3)8,1.7381999999999997
Li3Fe8(BO3)8,1.1139999999999999
Li3Fe8(BO3)8,1.5276
Li3Fe8(BO3)8,1.3921000000000001
Li3Fe8(BO3)8,1.3934
Li3Fe8(BO3)8,1.7174999999999998
Li3Fe8(BO3)8,1.5517999999999998
Li3Fe8O3F13,2.2396000000000003
Li3Fe9O5F11,1.6456000000000002
Li3Fe9O5F11,1.9446999999999999
Li3Fe9O5F11,0.855
Li3FeAsCO7,2.3061000000000003
Li3FeB4O9,2.7008
Li3FeB8O15,3.1956999999999995
Li3FeBAsO7,2.1952
Li3FeBO4,3.0694000000000004
Li3FeBO5,0.46430000000000005
Li3FeCo3O8,0.09799999999999986
Li3FeCo3O8,0.0
Li3FeCu3O8,0.0
Li3FeF5,3.8226
Li3FeF5,4.5642
Li3FeF5,0.12570000000000014
Li3FeF6,3.8122999999999996
Li3FeF6,3.6786000000000003
Li3FeF6,4.069599999999999
Li3FeF6,3.8142000000000005
Li3FeF6,4.0089999999999995
Li3FeF6,4.2565
Li3FeF6,3.6896999999999998
Li3FeF6,3.7585
Li3FeIrO5,0.0
Li3FeN2,0.0
Li3FeNi2(PO4)3,3.4838
Li3FeNi3O8,0.0
Li3FeO2F,2.4918
Li3FeO3,1.5152
Li3FeO3,0.0
Li3FeO3,2.1721
Li3FeO3,1.6343
Li3FeO3,1.9077000000000002
Li3FeO4,0.0
Li3FeO4,0.18789999999999984
Li3FeOF3,3.5132000000000003
Li3FeOF3,3.6437
Li3FeOF3,2.8447999999999998
Li3FeOF4,1.9515
Li3FeP2HO8,3.9185000000000003
Li3FeP2O9,0.027900000000000036
Li3FePCO7,3.7475000000000005
Li3FePCO7,4.2226
Li3FePCO7,3.899
Li3FePCO7,3.87
Li3FePCO7,0.0
Li3FePCO7,3.9590999999999994
Li3FePCO7,3.9081
Li3FePCO7,3.9363
Li3FePCO7,4.2364
Li3FePCO7,4.2013
Li3FePCO7,4.2436
Li3FePCO7,3.142
Li3FePCO7,3.7616
Li3FePCO7,3.6300000000000003
Li3FePCO7,3.6245000000000003
Li3FePO5,2.9765
Li3FeS3,0.0
Li3FeSi2O7,2.1388999999999996
Li3FeSi2O7,0.7926000000000002
Li3FeSiBO7,0.0
Li3FeSiO5,1.8987000000000003
Li3FeSiO5,2.4217
Li3FeSiO5,1.8956999999999997
Li3Ga,0.0
Li3Ga(BO3)2,4.1682
Li3Ga14,0.0
Li3Ga2,0.0
Li3Ga7,0.0
Li3GaF6,5.7707
Li3GaF6,6.2804
Li3GaGeO5,3.2656
Li3GaN2,2.3783
Li3GaSiO5,3.6429
Li3Gd,0.0
Li3Gd(BO3)2,2.9198
Li3Gd(NO3)6,2.6228
Li3Gd3(TeO6)2,2.8187
Li3GdBi2,0.0
Li3GdO3,3.5829999999999997
Li3Ge,0.0
Li3Ge3(MoO6)2,0.0
Li3GeO4,0.0
Li3H24Ru(ClO2)6,0.0
Li3H3N2,1.7457000000000003
Li3H4IN2,3.6707
Li3H4Rh,0.3917999999999999
Li3H6Ir,3.0495
Li3H6Rh,2.4252
Li3HfO3,0.0
Li3Hg,0.0
Li3Ho3(TeO6)2,3.5705
Li3HoSb2,0.0
Li3In,0.0
Li3In(BO3)2,3.6903999999999995
Li3In2,0.0
Li3In2(PO4)3,3.8766
Li3In2(PO4)3,3.7684
Li3InBr6,2.7553
Li3InBr6,2.8468999999999998
Li3InCl6,3.373
Li3InN2,1.0920999999999998
Li3InO3,2.8858000000000006
Li3IrF6,2.0846999999999998
Li3IrF6,2.0124
Li3IrN2,0.8756000000000002
Li3La14(CuO7)4,0.41299999999999937
Li3La2(BO3)3,4.504899999999999
Li3La2H6(N3O10)3,3.5098
Li3La3(MoO6)2,2.8495
Li3La5Ti6Nb2O26,1.8674999999999997
Li3La5Ti6Nb2O26,1.8563999999999998
Li3La5Ti8O24,0.0
Li3La7(FeO8)2,0.7042000000000002
Li3La8Ti9Cr3O36,1.2976
Li3LaAs2,0.5023
Li3LaBi2,0.1578999999999997
Li3LaGa8,0.0
Li3LaNiO4,2.2762000000000002
Li3LaNiO4,2.2628999999999997
Li3LaO3,3.8721999999999994
Li3LaP2,0.6124999999999998
Li3LaSb2,0.20389999999999997
Li3Lu(NO3)6,3.1118
Li3Lu3(TeO6)2,3.1062
Li3Mg,0.0
Li3Mg(NiO2)4,0.0
Li3Mg2Fe19O32,0.8706999999999998
Li3Mg3Ti6O16,0.0
Li3Mg5,0.0
Li3Mg5Bi3Pb,0.2008000000000001
Li3MgNi3O8,0.4996999999999998
Li3MgNi3O8,0.0
Li3MgNiO4,0.9152
Li3MgPCO7,5.3898
Li3MgPCO7,5.2189
Li3MgTi8O16,0.0
Li3MgV8O16,0.0017999999999998018
Li3MgV8O16,0.0
Li3MgZn5(BH4)15,5.202999999999999
Li3Mn(BO2)5,3.781
Li3Mn(BO3)2,1.4244
Li3Mn(BO3)2,0.9791000000000003
Li3Mn(BO3)2,0.9796
Li3Mn(BO3)2,0.9802999999999997
Li3Mn(BO3)2,0.9808999999999999
Li3Mn(CO3)3,0.6702
Li3Mn(CO3)4,0.0242
Li3Mn(CoO2)4,0.0
Li3Mn(CoO3)2,0.0
Li3Mn(CoO3)2,0.06950000000000012
Li3Mn(CoO3)2,0.48950000000000005
Li3Mn(CoO3)2,0.07019999999999982
Li3Mn(CoO3)2,0.9335
Li3Mn(CoO3)2,0.29300000000000015
Li3Mn(CoO3)2,1.1866999999999996
Li3Mn(CoO3)2,0.5057999999999998
Li3Mn(CoO3)2,0.7869000000000002
Li3Mn(CoO3)2,0.12760000000000016
Li3Mn(CoO3)2,0.22920000000000007
Li3Mn(CoO3)2,0.6381999999999999
Li3Mn(CoO3)2,0.005499999999999616
Li3Mn(CuO3)2,0.0
Li3Mn(FeO2)4,0.12429999999999986
Li3Mn(FeO3)2,0.2871999999999999
Li3Mn(NiO2)4,0.0
Li3Mn(NiO3)2,0.0
Li3Mn(OF)2,0.9794999999999998
Li3Mn(OF)2,2.4193
Li3Mn(OF)2,1.2378
Li3Mn(PO4)2,1.3687000000000002
Li3Mn(PO4)2,0.9321000000000002
Li3Mn(PO4)2,1.0274999999999999
Li3Mn(PO4)2,0.7314000000000003
Li3Mn(PO4)2,1.6431000000000002
Li3Mn(PO4)2,0.28300000000000036
Li3Mn(PO4)2,0.24419999999999975
Li3Mn(PO4)2,1.1737000000000002
Li3Mn(PO4)2,0.0
Li3Mn(PO4)2,0.9690999999999999
Li3Mn(PO4)2,0.4827999999999999
Li3Mn(PO4)2,1.1956
Li3Mn(PO4)2,0.976
Li3Mn(PO4)2,1.3018
Li3Mn(SbO3)4,0.0
Li3Mn(Si2O5)3,3.5618000000000003
Li3Mn(Si2O5)3,0.9430000000000001
Li3Mn10O20,0.0
Li3Mn2(CO3)4,0.5701999999999999
Li3Mn2(CO3)4,0.5049
Li3Mn2(CO5)2,0.0
Li3Mn2(CoO4)2,0.0
Li3Mn2(FeO4)2,0.0
Li3Mn2(P2O7)2,0.10550000000000015
Li3Mn2(P2O7)2,0.20320000000000005
Li3Mn2(P2O7)2,0.03949999999999987
Li3Mn2(P2O7)2,0.0
Li3Mn2(P2O7)2,0.1887000000000001
Li3Mn2(P2O7)2,0.16060000000000008
Li3Mn2(P2O7)2,0.1725000000000001
Li3Mn2(P2O7)2,0.11430000000000007
Li3Mn2(PO3)7,4.0146
Li3Mn2(PO4)3,1.0426
Li3Mn2(PO4)3,0.9717
Li3Mn2(PO4)3,0.7353000000000001
Li3Mn2(PO4)3,0.0
Li3Mn2(PO4)3,0.9772999999999998
Li3Mn2(PO4)3,1.0846999999999998
Li3Mn2(PO4)3,0.7329999999999999
Li3Mn2(PO4)3,0.48550000000000026
Li3Mn2(PO4)3,0.4872000000000001
Li3Mn2(PO4)3,0.8166000000000002
Li3Mn2(PO4)3,0.8770000000000002
Li3Mn2(PO4)3,0.24219999999999997
Li3Mn2(PO4)3,0.24269999999999992
Li3Mn2(PO4)3,1.3973
Li3Mn2(SeO3)4,0.7033
Li3Mn2(SiO4)2,0.0
Li3Mn2(SiO4)2,1.0612000000000001
Li3Mn2(SiO4)2,0.35960000000000014
Li3Mn2(SiO4)2,0.36970000000000014
Li3Mn28O56,0.0
Li3Mn2C3O9F,4.0815
Li3Mn2CoO6,0.0
Li3Mn2CoO6,0.5659000000000001
Li3Mn2CoO6,0.7330000000000001
Li3Mn2CoO6,0.9596999999999998
Li3Mn2CoO6,0.7244000000000002
Li3Mn2CoO6,0.6002999999999998
Li3Mn2CoO6,0.387
Li3Mn2CoO6,0.8129999999999997
Li3Mn2CoO6,0.42779999999999996
Li3Mn2CoO6,0.10880000000000001
Li3Mn2CoO6,0.9128000000000003
Li3Mn2CoO6,0.15339999999999998
Li3Mn2CoO6,0.8092999999999999
Li3Mn2CoO6,0.47250000000000014
Li3Mn2Cr2O8,0.1288999999999998
Li3Mn2Cr2O8,0.0
Li3Mn2CrO6,0.0
Li3Mn2CuO6,0.0
Li3Mn2F7,3.2257000000000002
Li3Mn2F9,1.7893
Li3Mn2F9,2.0383999999999998
Li3Mn2Fe(BO3)3,2.9760999999999997
Li3Mn2Fe(BO3)3,2.6337
Li3Mn2Fe(BO3)3,2.6594999999999995
Li3Mn2Fe(BO3)3,2.6271
Li3Mn2Fe(BO3)3,2.6426999999999996
Li3Mn2Fe(BO3)3,2.6445
Li3Mn2Fe(BO3)3,2.6541999999999994
Li3Mn2Fe(BO3)3,2.3901
Li3Mn2Fe(BO3)3,2.6411000000000002
Li3Mn2Fe(BO3)3,2.6528
Li3Mn2Fe(BO3)4,1.1051
Li3Mn2FeO6,0.0
Li3Mn2Ni5O12,0.0
Li3Mn2NiO6,0.0
Li3Mn2O4,0.09489999999999998
Li3Mn2O5,1.1778
Li3Mn2O5,0.9430999999999998
Li3Mn2O5,1.4069000000000003