formula,band_gap
HoHO2,4.757499999999999
HoHO2,4.1937
HoHSO5,5.7946
HoHSe,1.4981000000000004
HoHfF7,6.8874
HoHfOs2,0.0
HoHfRu2,0.0
HoHg,0.0
HoHg2,0.0
HoHg3,0.0
HoI3,2.2173
HoIO,2.2234
HoIO,3.4546000000000006
HoIn,0.0
HoIn2Ni9,0.0
HoIn2Pd,0.0
HoIn3,0.0
HoIn5Co,0.0
HoIn5Rh,0.0
HoIn7Cu5,0.0
HoInAg2,0.0
HoInAu,0.0
HoInAu2,0.0
HoInCo2,0.0
HoInCo4,0.0
HoInCu,0.0
HoInCu2,0.0
HoInGe2O7,2.6521
HoInIr,0.0
HoInNi,0.0
HoInNi4,0.0
HoInO3,1.9681000000000002
HoInO3,2.5765
HoInPd,0.0
HoInPd2,0.0
HoInPt,0.0
HoInPt2,0.0
HoInPt4,0.0
HoInRh,0.0
HoInRh2,0.0
HoIr,0.0
HoIr2,0.0
HoLu3,0.0
HoLuAg2,0.0
HoLuAl2,0.0
HoLuAu2,0.0
HoLuCd2,0.0
HoLuCu2,0.0
HoLuHg2,0.0
HoLuIn2,0.0
HoLuIr2,0.0
HoLuMg2,0.0
HoLuO3,4.5866999999999996
HoLuPd2,0.0
HoLuRh2,0.0
HoLuRu2,0.0
HoLuTl2,0.0
HoLuZn2,0.0
HoMg,0.0
HoMg(BO2)5,6.137099999999999
HoMg(BiO3)2,0.0
HoMg(CoO3)2,0.0
HoMg(FeO3)2,0.0
HoMg(MoO3)2,1.1227
HoMg(NiO3)2,0.0
HoMg(SnO3)2,0.0
HoMg(WO3)2,1.9251999999999994
HoMg149,0.27990000000000004
HoMg2,0.0
HoMg2Cu9,0.0
HoMg2Sc,0.0
HoMg3,0.0
HoMg5,0.0
HoMgAg,0.0
HoMgAg2,0.0
HoMgAu2,0.0
HoMgCd2,0.0
HoMgCr2O6,0.3339000000000003
HoMgGa,0.0
HoMgHg2,0.0
HoMgIn,0.0
HoMgMn2O6,0.0
HoMgPd,0.0
HoMgRh2,0.0
HoMgSn,0.0
HoMgTi2O6,0.0
HoMgTl,0.0
HoMgTl2,0.0
HoMgV2O6,0.8795000000000002
HoMgZn2,0.0
HoMn12,0.0
HoMn2,0.0
HoMn2O4,0.0
HoMn2O5,1.1551999999999998
HoMn2SiC,0.0
HoMn2ZnO6,0.0
HoMn4(CuO4)3,0.0
HoMn6(Sn2Ge)2,0.0
HoMnAl,0.0
HoMnB4,0.0
HoMnCu4P3,0.0
HoMnFe,0.0
HoMnGe,0.0
HoMnIn,0.0
HoMnNi2,0.0
HoMnO3,0.0
HoMnO3,0.43510000000000026
HoMnSi,0.0
HoMnSn2,0.0
HoMoBrO4,1.8564
HoMoC2,0.0
HoMoClO4,2.7162
HoMoO4F,3.4827
HoMoO5,0.0
HoN,0.08749999999999991
HoN3O10,0.08739999999999992
HoNO4,2.7456
HoNbO4,3.4844000000000004
HoNbOs2,0.0
HoNbRu2,0.0
HoNi,0.0
HoNi2,0.0
HoNi2B2C,0.0
HoNi3,0.0
HoNi4Au,0.0
HoNi4B,0.0
HoNi5,0.0
HoNi5Ge3,0.0
HoNiAs,0.0
HoNiB4,0.0
HoNiBi,0.1941000000000006
HoNiC2,0.0
HoNiGe,0.0
HoNiGe2,0.0
HoNiGe3,0.0
HoNiO3,0.0
HoNiPb,0.0
HoNiSb,0.2919999999999998
HoNiSb2,0.0
HoNiSn,0.0
HoNiSn2,0.0
HoNiSn4,0.0
HoNpRu2,0.0
HoO2,0.0
HoOF,5.0893999999999995
HoOs2,0.0
HoP,0.0
HoP2(HO2)5,2.1728
HoP4HO12,5.618
HoP5,0.10630000000000006
HoP5O14,5.233099999999999
HoP5O14,5.4553
HoPH5CO7,3.7281999999999997
HoPO4,5.9209
HoPPd,0.018299999999999983
HoPRu2C,0.0
HoPS,0.2939999999999996
HoPS4,2.1506999999999996
HoPaO4,2.4203
HoPaOs2,0.0
HoPaRu2,0.0
HoPaTc2,0.0
HoPb3,0.0
HoPbAu,0.0
HoPd,0.0
HoPd2Pb,0.0
HoPd3,0.0
HoPd3S4,0.0
HoPt,0.0
HoPt2,0.0
HoPt3,0.0
HoPtF7,2.1007
HoPu3,0.0
HoRe2,0.0
HoRe2SiC,0.0
HoReB4,0.0
HoRh,0.0
HoRh2,0.0
HoRh2Pb,0.0
HoRh3C,0.0
HoRhO3,0.9605999999999995
HoRu2,0.0
HoRu3C,0.0
HoS,0.0
HoS2,0.0
HoSF,1.2995999999999999
HoSI,2.7205999999999997
HoSO,1.1909999999999998
HoSb,0.0
HoSb3,0.0
HoSbIr,0.0
HoSbMo2O9,3.1837
HoSbO4,2.3323
HoSbO4,2.2933
HoSbPd2,0.0
HoSbPt,0.0
HoSbRh,0.0
HoSbRh2,0.0
HoSc(BO3)2,4.4611
HoSc(BRh)8,0.0
HoScAl2,0.0
HoScO3,4.476
HoScRu2,0.0
HoScS3,1.7663000000000002
HoScZn2,0.0
HoSe,0.0
HoSe2,0.0
HoSeClO3,4.357200000000001
HoSeF,2.8304
HoSeF,2.1005000000000003
HoSeO3F,4.2961
HoSi,0.0
HoSi2,0.0
HoSi2Ni,0.0
HoSi2Rh3,0.0
HoSi3,0.0
HoSi3Ir,0.0
HoSi3Ni5,0.0
HoSi3Rh5,0.0
HoSiIr,0.0
HoSiNi,0.0
HoSiNi4,0.0
HoSiOs2C,0.0
HoSiPd2,0.0
HoSiPt,0.0
HoSiPt2,0.0
HoSiRh,0.0
HoSiRu,0.0
HoSiRu2C,0.0
HoSn2,0.0
HoSn3,0.0
HoSnAu,0.0
HoSnAu,0.02200000000000024
HoSnAu2,0.0
HoSnGe,0.0
HoSnIr,0.0
HoSnPd,0.0
HoSnPd2,0.0
HoSnPt,0.0
HoSnRh,0.0
HoSnRh2,0.0
HoSnRu2,0.0
HoTa3O9,3.0053
HoTa3O9,2.4556999999999998
HoTa5Ag2O15,2.5934000000000004
HoTa7O19,3.1653
HoTaO4,4.050800000000001
HoTaO4,4.0405999999999995
HoTaOs2,0.0
HoTaRu2,0.0
HoTaTiO6,3.334
HoTc2,0.0
HoTe,0.0
HoTe2,0.0
HoTe2ClO5,2.9145
HoTe3,0.0
HoTeClO3,3.8572999999999995
HoTh,0.0
HoTh3,0.0
HoThOs2,0.0
HoThRu2,0.0
HoThTc2,0.0
HoTi2ZnO6,0.0
HoTiClO3,3.1229999999999993
HoTiCo11,0.0
HoTiFe11,0.0
HoTiFe11C,0.0
HoTiFe11N,0.0
HoTiFe8Co3,0.0
HoTiGe,0.0
HoTiO3,0.0
HoTiSi,0.0
HoTl,0.0
HoTl(MoO4)2,3.291
HoTl(WO4)2,2.9276
HoTl3,0.0
HoTlO2,1.4262000000000001
HoTlPd,0.0
HoTlRh2,0.0
HoTlS2,1.4885000000000002
HoTlS2O9,1.7190999999999999
HoTlSe2,1.2785000000000002
HoTlTe2,0.7305000000000001
HoTm3,0.0
HoTmAg2,0.0
HoTmAl2,0.0
HoTmCd2,0.0
HoTmCu2,0.0
HoTmHg2,0.0
HoTmIn2,0.0
HoTmMg2,0.0
HoTmO3,4.5366
HoTmPd2,0.0
HoTmRh2,0.0
HoTmRu2,0.0
HoTmTl2,0.0
HoTmZn2,0.0
HoU2S3O2,0.0
HoUTe3,0.0
HoUTe4,0.0
HoUTe6,0.0
HoV2O6,0.8904999999999998
HoV2ZnO6,1.0043999999999995
HoVB4,0.0
HoVO3,1.1970999999999998
HoVO4,2.7483999999999997
HoVO4,2.9805
HoWBrO4,2.6863
HoWC2,0.0
HoWClO4,3.4026
HoWO5,0.0
HoZn,0.0
HoZn(BiO3)2,0.0
HoZn(CoO3)2,0.07489999999999997
HoZn(FeO3)2,0.0
HoZn(MoO3)2,1.1326
HoZn(NiO3)2,0.0
HoZn(SbO3)2,1.4613
HoZn(SnO3)2,0.0
HoZn(WO3)2,0.9379
HoZn12,0.0
HoZn2,0.0
HoZn3,0.0
HoZnCr2O6,0.11290000000000022
HoZnGe,0.0
HoZnIn,0.0
HoZnPd,0.0
HoZnPd2,0.0
HoZnRh,0.0
HoZnRh2,0.0
HoZnSi,0.0
HoZnSn,0.0
HoZnSn2,0.0
HoZr,0.0
HoZr6(PO4)9,3.7431
HoZrCo4,0.0
HoZrF7,5.857200000000001
HoZrOs2,0.0
HoZrRu2,0.0
HoZrSb,0.0
I,0.0
I2(OF2)3,2.3164
I2O5,2.7278
I3NO9,1.7108999999999999
I3O8,0.0
IBr,1.4022999999999999
IBr2,0.0
ICl,1.8521999999999998
ICl,1.4968000000000001
ICl,1.1833
ICl2,0.0
ICl3,1.7959999999999998
IClO,1.0255999999999998
IClOF,1.7840000000000003
IF3,2.1132
IF5,4.6815
IF7,1.8027000000000002
IF7,1.4397
IF7,1.6861
IN2,0.0
IN2O4F5,1.4687000000000001
IN4,0.0
INO3,1.6497000000000002
IO2,1.4625
IO2F,2.8952
IO3,0.0
IO3,1.9182000000000001
IOF3,3.637
In,0.0
In(BO2)5,0.0
In(BiSe2)3,0.5345
In(C2N3)3,3.5434
In(Co11B3)2,0.0
In(CoSb3)16,0.0
In(CoSb3)20,0.0
In(Cu3O4)2,0.0
In(FeO2)2,0.0
In(GaAu)2,0.0
In(HO)3,2.7771999999999997
In(HO)3,2.7719000000000005
In(HO)3,1.9485999999999999
In(HO)3,2.3273
In(IO3)3,3.4112999999999998
In(IO3)3,3.0751000000000004
In(Mo3S4)2,0.0
In(Mo3Se4)2,0.0
In(MoSe)3,0.0
In(Ni11B3)2,0.0
In(PO3)3,4.5161999999999995
In(PO3)3,4.3778
In(SeO3)2,0.0
In(TeMo)3,0.0
In10(Pb2S7)3,1.1853999999999996
In10(Pb2S7)3,1.0857999999999999
In10(Pb2S7)3,1.1947
In10(Pb2S7)3,1.3131000000000004
In10(Sn2S7)3,0.6701999999999995
In10CuAgS16,1.0372000000000003
In10Sb9Te,0.0
In10SnS14,0.9308999999999994
In11(SbO8)3,0.7987000000000002
In11Cu9Se20,0.0
In11S16,0.0
In12Ga4Ir2O15,1.4187000000000003
In14Ga3Pt2O8F15,1.9925000000000002
In14Sn5S26,0.6484999999999994
In15SnO24,0.0
In16Bi8Pb3S38,0.0
In2(CN2)3,2.1510000000000002
In2(Co7B2)3,0.0
In2(MoO4)3,3.4116
In2(Ni7B2)3,0.0
In2(Ni7P2)3,0.0
In2(PS3)3,1.7155
In2(PSe3)3,0.7749000000000001
In2(PSe3)3,0.7303000000000002
In2(SO4)3,3.2428000000000003
In2(SO4)3,3.7535
In2(SO4)3,3.8463
In2(Se2O5)3,3.4802
In2(SeO4)3,2.3097000000000003
In2(TeO3)3,3.0171
In2(WO4)3,4.2459
In2(WO4)3,4.0301
In23Se28,0.0
In2Ag,0.0
In2Ag2GeS6,0.9615
In2Ag2GeSe6,0.43699999999999983
In2Ag3(PO4)3,1.2219000000000002
In2Ag3SbSe6,0.0
In2AgS3Br,0.9666000000000001
In2AgS3Cl,1.1027
In2AgSe3Br,0.21809999999999974
In2AgSe3Cl,0.7235
In2AgSe3I,0.030799999999999716
In2AgSe4,0.0
In2AgTe3Br,0.0
In2AgTe3Cl,0.0
In2AgTe3I,0.4591000000000003
In2As2Cl2O5,3.1511000000000005
In2AsP,0.0
In2AsP,1.3294999999999995
In2AsPt8,0.0
In2AsSe,0.0
In2Au,0.0
In2Au3,0.0
In2B(PO4)3,3.9141
In2Bi,0.0
In2Bi2O7,0.11910000000000043
In2Bi3Se7I,1.1486999999999998
In2Bi4Pb4S13,1.2003999999999992
In2Bi4Pb4Se13,0.9121000000000001
In2BiSe4I,1.4904000000000002
In2Br3,2.1261
In2Br3,2.3003
In2Cl3,2.295
In2Co,0.0
In2Co2O7,0.0
In2Co3S2,0.0
In2CoS4,0.0
In2CoSe4,0.0
In2Cu,0.0
In2Cu2O5,0.1949999999999994
In2Cu2O5,0.0
In2Cu2SiS6,0.45840000000000014
In2Cu3(PO4)4,0.0
In2Cu3(SeO3)6,0.38949999999999996
In2CuAg(SnS4)2,0.3885999999999994
In2CuAg(TeSe)2,0.06789999999999985
In2CuAgS4,0.0895999999999999
In2CuAgSe4,0.0032000000000000917
In2CuAgTe4,0.01949999999999985
In2CuAsSe2,0.0054000000000002935
In2CuS4,0.0
In2CuSe3Br,0.4907999999999997
In2CuSe3I,0.17669999999999986
In2CuSe4,0.0
In2CuTe3Br,0.5747000000000004
In2CuTe3Cl,0.6181999999999994
In2CuTe3I,1.0657999999999999
In2FeS4,0.0
In2FeSbO7,0.5701
In2Ga(CuSe2)3,0.7523
In2GaAs3,0.0
In2GaBiS6,1.8499000000000003
In2GaS4,0.0
In2Ge2O7,1.0494000000000003
In2Ge2O7,1.7955
In2Ge5N8,0.2134999999999998
In2H10S3O17,4.0257
In2H6C5O11,4.7153
In2Hg5Te8,0.005300000000000082
In2Hg6(PCl3)3,2.2186
In2Hg8As5Br7,0.0
In2HgO4,0.14620000000000033
In2HgS4,0.34670000000000023
In2HgSe4,0.6337000000000002
In2HgTe4,0.5295000000000001
In2Ir,0.0
In2Mo15Se19,0.0
In2Ni3S2,0.0
In2Ni3Se2,0.0
In2Ni6C,0.0
In2NiS4,0.0
In2O3,0.7626999999999997
In2O3,0.8990999999999998
In2O3,0.9586000000000006
In2O3,0.9288999999999996
In2P2O7,3.6658
In2P6O19,0.3459
In2PO5,2.0733999999999995
In2PbS4,1.4146999999999998
In2Pd8Se,0.0
In2Pt,0.0
In2Pt2O7,2.049200000000001
In2Pt3,0.0
In2Rh3S2,0.0
In2S3,0.8170999999999999
In2S3,0.8348999999999998
In2S3,0.2801999999999998
In2S3,1.4722999999999997
In2S3,0.4851000000000001
In2Sb,0.0
In2Sb2H16C4S7N2,2.6056
In2Sb2H16C4Se7N2,2.162
In2Sb4Pb4Se13,0.6735000000000007
In2SbAs,0.0
In2Se,0.0
In2Se2O7,2.8578
In2Se3,0.10449999999999982
In2Se3,0.9901999999999997
In2Si(AgS3)2,0.9912000000000001
In2Si(AgSe3)2,0.476
In2Si2O7,1.8098999999999998
In2Si2O7,2.7009000000000003
In2Si2Pb2O9,3.3467000000000002
In2SiGe2S5O24,1.3473
In2SiSn2S5O24,1.4433999999999998
In2Sn2O7,0.2812000000000001
In2Sn3S7,0.5455000000000005
In2SnPb,0.0
In2Te2MoO10,2.5591
In2Te3,0.0
In2Te3,0.13649999999999984
In2Te5,0.8515000000000006
In2Te5,0.8878000000000004
In2Te9RuCl8,1.3094999999999999
In2TeAs,0.0
In2TeO6,1.0165999999999995
In2WO6,2.2935999999999996
In2WO6,2.634
In2WO6,2.4632000000000005
In2WO6,2.5124000000000004
In3(Co10B3)2,0.0
In3(PO4)2,3.0692000000000004
In3Ag,0.0
In3Ag3(HgTe4)2,0.9131
In3AsSe3,0.20100000000000007
In3AsSe3,0.09980000000000011
In3Au,0.0
In3Au10,0.0
In3Au7,0.0
In3Bi,0.0
In3Bi7(Pb2S9)2,0.0
In3BiTe4,0.0
In3Co,0.0
In3Cu,0.0
In3Cu(AsSe)2,0.0
In3Cu3O8,0.0
In3Cu3SiSe8,0.6336000000000004
In3Cu7,0.0
In3CuSe5,0.27200000000000024
In3Ga,0.0
In3GaN4,0.24619999999999997
In3GaN4,0.0
In3GaTe4,0.0
In3Ge,0.0
In3H11C6O19,0.1768
In3Hg,0.0
In3Ir,0.0
In3Mo15Se19,0.0
In3NO3,0.0
In3NO3,0.03059999999999974
In3Ni2,0.0
In3Ni7,0.0
In3Pb,0.0
In3Pd2,0.0
In3Pd5,0.0
In3Pt2,0.0
In3Pt4,0.0
In3Pt5,0.0
In3Rh,0.0
In3Ru,0.2290000000000001
In3Ru,0.20950000000000024
In3S4,0.0
In3Sb,0.0
In3Sb5O12,2.3282999999999996
In3SbTe2,0.0
In3SbTe4,0.0
In3Se,0.0
In3Sn,0.0
In3Sn3Au4,0.0
In3SnAu12,0.0
In3SnAu4,0.0
In3SnI5,1.8891
In3SnI5,2.0773
In3SnI5,1.8894000000000002
In3Te3Br,1.3041999999999998
In3Te3I,1.1004
In3Te4,0.0
In4(Co4C)3,0.0
In4(P2O7)3,3.4044000000000003
In4(SnO4)3,1.6232999999999995
In4(SnO4)3,0.8886000000000003
In4(SnO4)3,0.8894000000000002
In4Ag3(GeSe4)4,0.0
In4Ag9,0.0
In4As3P,0.022499999999999964
In4As3Se,0.0
In4As5(BrO4)3,2.9879999999999995
In4AsP3,1.2212000000000005
In4Au9,0.0
In4Bi,0.0
In4Bi2S9,1.6307999999999998
In4Bi3Pb,0.0
In4Bi3S10,1.0139000000000005
In4Br7,2.2604
In4Br7,2.2916999999999996
In4Cu3AgTe8,0.01869999999999994
In4Cu9,0.0
In4CuAg3Te8,0.08749999999999991
In4GeS4,1.0698000000000003
In4GeSb2Te,9.999999999976694e-05
In4GeSe4,0.6203000000000003
In4H12C15O31,0.48570000000000024
In4P6Pb2O23,3.7106000000000003
In4Pb,0.0
In4Pd17Se4,0.0
In4S3N2,0.20429999999999993
In4SbTe3,0.0
In4Se3,0.1504000000000003
In4Se3N2,0.045299999999999674
In4SnS4,1.1714000000000002
In4SnS8,0.24070000000000036
In4SnSe4,0.8023000000000002
In4Te3,0.12239999999999984
In4Te3N2,0.0
In5(BiS4)3,1.4268999999999998
In5(BiS4)3,1.2542
In5AgS8,0.10349999999999948
In5AgSe8,0.22360000000000024
In5AgSe8,0.25770000000000026
In5AgTe8,0.17879999999999985
In5AgTe8,0.2868999999999997
In5B4Ir9,0.0
In5Bi3,0.0
In5Br7,2.0479
In5Br7,2.1487
In5Br7,2.0042999999999997
In5Cl9,2.9777
In5CuS8,0.16140000000000043
In5CuSe8,0.4548000000000001
In5CuTe8,0.14150000000000063
In5Pt11,0.0
In5S4,0.0
In5S5Br,1.1148999999999996
In5S5Cl,1.2286000000000001
In5S8,0.0
In5Sb3,0.0
In5Se5Br,0.7435
In5Se5Cl,0.8961000000000001
In5SnSb3Te,0.16529999999999934
In6Ga2PtO8,0.5671999999999997
In6Ge2IrO8,0.0
In6Ge2PtO9,1.3445
In6ReO12,0.0
In6S7,0.3186
In6Se7,0.46080000000000076
In6Se7,0.019000000000000128
In6Sn8S19,0.5061
In6Te10Pb,0.9293
In6TeO12,1.0099
In6WO12,1.7679999999999998
In7Br9,1.5468
In7Cl9,2.1903000000000006
In7Cu10,0.0
In7GeIrO8,0.41029999999999944
In7Ni3,0.8483999999999998
In7Pd3,0.0
In7Pt3,0.0
In7Te10,0.8150999999999997
In8Cu7Se16,0.0
In9(CuSe4)4,0.0
In9Ag17,0.0
In9Cu11,0.0
In9Ga3(BiS6)4,1.7826
In9Ni13,0.0
In9Pb4S17,0.0
In9Pt13,0.0
In9Sn4S17,0.0
InAg,0.0
InAg(MoO4)2,0.0
InAg(PS3)2,1.1482999999999999
InAg(PSe3)2,0.6040999999999999
InAg(WO4)2,2.1247000000000003
InAg2BiSe4,0.0
InAg2SbSe4,0.0
InAg3,0.0
InAg3(PO4)2,1.2216999999999998
InAg3F6,0.0
InAg3F6,0.8030999999999999
InAg4,0.0
InAgAu2,0.0
InAgGeSe4,0.8570000000000002
InAgO2,0.0
InAgO2,0.23470000000000013
InAgO2,0.21829999999999972
InAgP2(HO4)2,2.4227999999999996
InAgP2O7,2.4499000000000004
InAgS2,0.4832999999999994
InAgS2,0.0
InAgS2,0.37729999999999997
InAgS2,0.1086999999999998
InAgS2,0.5082
InAgS2,0.11369999999999969
InAgSe2,0.0
InAgSe2,0.08990000000000009
InAgSeS,0.15969999999999995
InAgSnS4,0.9214999999999995
InAgSnSe4,0.7280000000000002
InAgTe2,0.0
InAgTe2,0.06499999999999995
InAgTeSe,0.8824000000000001
InAs,0.0
InAs(H2O3)2,2.8192
InAs2PbO8,0.047100000000000364
InAs4Pd15,0.0
InAsH2O5,2.1239
InAsPd5,0.0
InAsPt5,0.0
InAu3,0.0
InAuO2,0.0
InBF4,4.5332
InBO3,2.6556
InBP2H5NO9,4.0764000000000005
InBi,0.0
InBi2S4Br,1.6270000000000002
InBi2S4Cl,1.593
InBi2Se4Br,1.2945000000000002
InBi3,0.0
InBi37Br48,1.3743999999999998
InBi3Te4,0.0
InBiO3,2.7352000000000007
InBiO3,2.4961
InBiS3,1.4085
InBiSe3,0.8233999999999999
InBr,1.2570999999999999
InBr2,2.4137
InBr3,2.489
InBrO,1.9948
InCN2,0.0
InCN2,0.27199999999999935
InCl,2.1862
InCl,1.4744000000000002
InCl,1.4018000000000002
InCl2,3.0226
InCl3,3.0122
InClO,2.3644999999999996
InCo3N,0.0
InCo3SnS2,0.19669999999999987
InCoO3,0.0
InCu,0.0
InCu(MoO4)2,0.0
InCu(PSe3)2,0.20869999999999989
InCu(WO4)2,0.6250999999999998
InCu2,0.0
InCu3,0.0
InCu6ClO8,0.0
InCuGeS4,1.1346000000000003
InCuGeSe4,0.6493000000000002
InCuNi,0.0
InCuO2,0.23989999999999956
InCuO2,0.2515999999999998
InCuO3,0.0
InCuPO5,0.0
InCuPd2,0.0
InCuPt2,0.0
InCuS2,0.04360000000000053
InCuS2,0.0
InCuSe2,0.0
InCuSeS,0.18839999999999968
InCuSnS4,0.375
InCuSnSe4,0.3575999999999997
InCuTe2,0.0
InCuTeSe,0.0
InF3,4.0226
InFe(CuSe2)2,0.0
InFe(CuTe2)2,0.0
InFe11O16,0.0
InFe17O24,0.21389999999999976
InFe29O40,0.8813999999999997
InFe2CuSe4,0.0
InFeCo2,0.0
InFeCoO4,1.7942000000000005
InFeO3,1.2138
InFeRh2,0.0
InGa(AgS2)2,0.6488
InGa(AgSe2)2,0.10309999999999997
InGa(AgTe2)2,1.0657
InGa(CuSe2)2,0.0011999999999998678
InGa(CuTe2)2,0.18349999999999955
InGa(SO4)3,3.3502
InGa2(AgSe2)3,0.14810000000000012
InGa2Cl7,3.832
InGa2N3,0.9052000000000007
InGa3,0.0
InGa3N4,0.5781999999999998
InGa4Sb5,0.07169999999999987
InGa5As4,0.0
InGaAg2(TeSe)2,1.0227
InGaAs2,1.2801
InGaAs2,0.0
InGaBr4,2.9288
InGaCoS4,0.0
InGaCu2(TeSe)2,0.04519999999999991
InGaCuAgSe4,0.0024000000000001798
InGaCuAgTe4,0.9116
InGaCuO4,0.0
InGaN2,0.2331000000000003
InGaO3,1.3419999999999996
InGaP2,0.5607000000000006
InGaS3,0.04519999999999991
InGaS3,1.6761
InGaS3,2.0936999999999997
InGaSb2,0.0
InGaSe2,0.0
InGaSe3,1.331
InGaSnO5,1.8685
InGaTe2,0.0
InGe2P(H3C)8,3.3761
InGe2SbTe5,0.0
InGeCl3,2.2217000000000002
InGeCl3,3.2685
InGeN2,0.9608999999999996
InGeP(SO6)2,1.8968
InGeTe2,0.0
InH10C2SeCl3O2,3.3684000000000003
InH10C3O11,3.4852
InH10N2Cl5O,3.3472999999999997
InH10N3O14,3.6327
InH11S2O13,3.7195
InH12(NF2)3,5.5754
InH12C4Se2Cl3,2.9414
InH12C4Se2I3,2.3864
InH12S2NO12,3.8713
InH12S3(NO4)3,3.9872
InH24C6(Br2N)3,2.7839
InH3(CO2)3,4.8309
InH3(IO4)2,3.5904999999999996
InH36C12S6(IO2)3,2.4953
InH3C2O5,4.2657
InH4CSeO7,3.4718
InH4NCl4,3.6373999999999995
InH5(NF)2,3.5048999999999997
InH5NOF4,4.7646
InH6(CO3)3,3.7005999999999997
InH6(ClO)3,3.7154999999999996
InH7N2OF4,3.9316999999999998
InH8C4NO10,3.5606
InH9(NCl)3,3.7733999999999996
InH9(SO6)2,4.1792
InHO2,1.6522000000000006
InHO2,1.6292
InHO2,1.7764000000000002
InHO2,1.8668000000000005
InHSeO4,2.9993000000000003
InHSeO4,3.4401
InHg,0.0
InHg3,0.0
InHg6As4Cl7,1.3841999999999999
InHg6Sb4Br7,1.127
InHg7S6Cl5,1.4549000000000003
InHgTe2,0.0
InI,1.3412000000000002
InI2,1.7863000000000002
InI2Br,1.7868000000000002
InI3,2.2833
InI4,0.0
InMo12PbS16,0.0
InMo6(SeS)4,0.0
InMoHSeO7,3.1395999999999997
InMoS2,0.0
InN,0.0
InNi,0.0
InNi2,0.0
InNi2Au,0.0
InNi2SbO6,0.0
InNi2Sn,0.0
InNi3,0.0
InNi3N,0.0
InNi3Sb,0.0
InNiAg2F7,1.4768
InOF,1.3306999999999998
InOF,1.4340000000000006
InP,0.4546000000000001
InP,0.5133999999999999
InP(H2O3)2,3.6671
InP(H2O3)2,3.8611000000000004
InP2H6NO8,3.9258
InP2H6NO8,3.8622000000000005
InP2H9(NO4)2,3.7863
InP2H9(NO4)2,3.6238
InP2PbO8,0.0
InP3,0.0
InP3(HO5)2,3.8902
InP3Pb2O11,4.0204
InPH2O5,3.3244
InPH5NO5,3.5128000000000004
InPO4,2.7323000000000004
InPO4,2.3482000000000003
InPPd5,0.0
InPPt5,0.0
InPS4,2.4754000000000005
InPb,0.0
InPb2F7,4.3537
InPb2I5,1.8572000000000006
InPbCl3,2.5321999999999996
InPbCl3,2.9011
InPd,0.0
InPd2,0.0
InPd2Au,0.0
InPd3,0.0
InPd5Se,0.0
InPt,0.0
InPt2,0.0
InPt3,0.0
InRe4H8NO20,0.0
InRh,0.0
InRh3,0.0
InRh3PbS2,0.0
InRhO3,0.3221999999999996
InRhO3,1.0391000000000004
InS,1.3508000000000004
InS,0.4359000000000002
InSO5,0.29170000000000007
InSb,0.0
InSb(P2O7)2,2.9879000000000002
InSb2S4Br,1.5308000000000002
InSb2S4Cl,1.5524999999999998
InSb2Se4Br,1.1103000000000005
InSb3,0.0
InSb3(PO4)6,2.5289
InSb3F18,3.4854
InSb3Pb4O13,1.5594000000000001
InSbO4,1.0427999999999997
InSbS3,1.4760999999999997
InSbSe3,1.1020000000000003
InSe,0.6560999999999999
InSe,0.4590000000000001
InSe,1.0804000000000005
InSe,0.6665000000000001
InSe2,0.0
InSeClO3,3.3797999999999995
InSeI,1.5132
InSi2As(H3C)8,3.4387
InSi2H19C7Br2,3.1192
InSi2P(H3C)8,3.7122
InSi4H38C14Cl,3.9314
InSi4H39C14O,3.6954000000000002
InSi4H41C15O,3.5755
InSi7N10,0.0
InSiH11C3Br3N,3.4543
InSiPt5,0.0
InSiTe3,0.5186000000000002
InSn2Br5,2.305
InSn2Cl5,2.6738000000000004
InSn2I5,1.4292000000000002
InSn2P(H3C)8,3.1096
InSn2Te3,0.0
InSn3,0.0
InSn3Se4,0.0
InSn4,0.0
InSnBr3,1.5767000000000002
InSnBr3,1.0975
InSnBr3,1.7904999999999998
InSnCl3,1.8707999999999996
InSnCl3,2.0787999999999998
InSnCl3,3.0433
InSnP(SO6)2,1.959
InSnTe2,0.0
InTe,0.0
InTe14(IrBr8)2,0.0040000000000000036
InTe2O5F,3.2619999999999996
InTe5Pb4,0.0
InTeBr,1.7355999999999998
InTeBrO3,2.9011
InTeCl,1.6633
InTeClO3,3.0755
InTeI,1.7076
InTeI7,1.734
InTeO3F,3.178
Ir,0.0
Ir(Cl2F3)2,0.0
Ir(N2Cl3)2,0.2946
Ir(SeBr3)3,1.6213
Ir(SeBr3)3,1.4533999999999998
Ir(SeBr3)3,1.651
Ir2(Se3Br2)3,1.5192999999999999
Ir2(Se3Cl2)3,1.5989000000000002
Ir2Pb2O7,0.15200000000000014
Ir2S3,0.7821000000000007
Ir2S3,1.1376999999999997
Ir3Os,0.0
Ir3Rh,0.0
Ir3Ru,0.0
Ir3S8,0.0
Ir3Se8,0.0
Ir3W,0.0
Ir4Os,0.0
IrBr3,1.5604000000000002
IrCl3,1.8970000000000002
IrCl3,1.9582
IrCl3,1.6759999999999997
IrClOF6,0.02670000000000039
IrF3,1.1410999999999998
IrF4,0.0
IrF6,0.7714000000000003
IrI3,1.3846999999999996
IrN2,0.3200000000000003
IrN3,0.0
IrO2,0.0
IrO3,0.0
IrOs,0.0
IrOsRu,0.0
IrPd,0.0
IrPd3,0.0
IrPt,0.0
IrPt3,0.0
IrRh,0.0
IrRh3,0.0
IrRu,0.0
IrRu3,0.0
IrS2,0.0
IrS2,0.5371000000000006
IrS2Cl3O7,0.2995000000000001
IrS3Cl11,2.278
IrSe2,0.0517000000000003
IrSe3,0.0
IrW,0.0
IrWO6,0.0
K,0.0
K(AsIr)2,0.0
K(AsRh)2,0.0
K(AsRu)2,0.0
K(AuO2)2,0.0
K(B7H6)3,4.3822
K(BH)3,5.0082
K(BH)5,4.4587
K(BH)6,5.5283999999999995
K(CoAs)2,0.0
K(CoO2)2,0.0
K(CoP)2,0.0
K(CoS)2,0.0
K(CoSe)2,0.0
K(CrS2)2,0.0
K(Cu2As)2,0.0
K(Cu2Sb)2,0.0
K(CuS)2,0.0
K(CuSe)2,0.0
K(FeAs)2,0.0
K(FeP)2,0.0
K(FeS)2,0.0
K(FeSb3)4,0.0
K(FeSe)2,0.0
K(FeTe)2,0.0
K(GeAs)3,0.6616000000000004
K(GeO2)2,0.0
K(GeSe2)2,0.0
K(IO3)2,0.0
K(IO3)2,0.26170000000000004
K(IO3)2,1.5374
K(IO3)3,0.0
K(In3Au2)2,0.0
K(InAu2)2,0.0
K(InGa)2,0.0
K(IrO2)4,0.0
K(Mo3S4)2,0.0
K(Mo6S7)2,0.0
K(MoO2)4,0.3487
K(MoO2)4,0.33479999999999954
K(MoO3)3,0.0
K(MoS)3,0.0
K(MoS)9,0.0
K(MoSe)3,0.0
K(NaIn3)3,0.0
K(Nb2Cl5)4,0.0
K(Nb3S4)2,0.3539999999999992
K(Nb3Se4)2,0.39090000000000025
K(NiS)2,0.0
K(NiSe)2,0.0
K(NpSe3)2,0.0
K(OsO3)2,0.0
K(PIr)2,0.0
K(PRh)2,0.0
K(PRu)2,0.0
K(RuO2)4,0.0
K(SbSe2)2,1.1172999999999997
K(SeO3)2,0.14690000000000003
K(SiAs)3,1.4134999999999995
K(SiPd)4,0.0
K(SiPt)4,0.0
K(Sn3Au2)2,0.0
K(SnAs)3,0.5191999999999997
K(SnAu)3,0.0
K(SnAu2)2,0.0
K(SnSe2)2,1.1726999999999999
K(TeMo)3,0.0
K(TeO3)2,1.0307
K(ThSe3)2,0.0
K(ThTe3)2,0.0
K(Ti3Se4)2,0.0
K(Ti3Se4)4,0.0
K(USe3)2,0.0
K(V5S8)2,0.0
K(VS2)2,0.0
K(WCl3)3,0.0
K(WO3)3,0.5068000000000001
K(WO3)3,0.0
K(WO3)4,0.0
K(WO3)6,0.0
K(WO3)9,0.0
K(Zr3Te4)4,0.0
K10Co4O9,1.435