formula,band_gap
LaF3,5.761
LaF3,6.0448
LaFe(Ni2Ge)4,0.0
LaFe12O19,0.018600000000000172
LaFe12O19,0.9577999999999998
LaFe2AsN,0.0
LaFe2PbO6,0.0
LaFe3(BO3)4,2.3045000000000004
LaFe4(BiO4)3,1.5881999999999996
LaFe4(CuO4)3,0.0
LaFe5(GeO5)3,1.7010999999999998
LaFe5Bi4O15,1.7804000000000002
LaFe5Bi4O15,1.5941
LaFe5H12,0.0
LaFe5H2,0.0
LaFe5H7,0.0
LaFe6(CoB)6,0.0
LaFe8Si5,0.0
LaFe9Si4,0.0
LaFeAsO,1.2855999999999996
LaFeAsO,0.0
LaFeCuNi3,0.0
LaFeGe2O7,2.3511
LaFeGe3,0.0
LaFeMoO6,1.3935000000000004
LaFeNi4,0.0
LaFeO3,1.9508999999999999
LaFeO3,1.2424
LaFeO3,1.2086999999999994
LaFeO3,0.8483999999999998
LaFeReO6,0.0
LaFeSb2,0.0
LaFeSbO6,0.0
LaFeSi,0.0
LaFeSi2,0.0
LaFeSi2Rh,0.0
LaFeTeO6,1.2818000000000005
LaFeTeO6,2.5123999999999995
LaFeTeO6,2.4781999999999997
LaFeWO6,1.7712000000000003
LaGa,0.0
LaGa(SO4)3,2.8976
LaGa2,0.0
LaGa2Co3,0.0
LaGa2Ni,0.0
LaGa2Ni3,0.0
LaGa2Pt3,0.0
LaGa2Rh3,0.0
LaGa3Co10,0.0
LaGa3Cu,0.0
LaGa3Fe10C,0.0
LaGa3Ni,0.0
LaGa3Pd,0.0
LaGa3Pd2,0.0
LaGa3Pt,0.0
LaGa4Fe9C,0.0
LaGa4Os,0.0
LaGa6,0.0
LaGa6Pd,0.0
LaGaAu2,0.0
LaGaBi2,0.0
LaGaGe2O7,3.1959
LaGaNi,0.0
LaGaNi4,0.0
LaGaO3,3.3682000000000007
LaGaO3,3.365900000000001
LaGaO3,3.2035
LaGaO3,3.3802000000000003
LaGaO3,3.3965999999999994
LaGaO3,3.3483
LaGaPd2,0.0
LaGaPt,0.0
LaGaS2O,1.9299
LaGaS3,2.1506
LaGaS3,2.2220000000000004
LaGaSb2,0.0
LaGaSe2O,1.5984999999999996
LaGaSi,0.0
LaGd(BrO)2,2.7531
LaGd(ClO)2,3.0539
LaGd(CuSn)4,0.0
LaGd3,0.0
LaGd3(BrO)4,2.8592
LaGd3(ClO)4,3.0552999999999995
LaGdAl4,0.0
LaGdB12,0.0
LaGdC4,0.0
LaGdN2,0.0
LaGdTl2,0.0
LaGe,0.0
LaGe2,0.0
LaGe2Ir3,0.0
LaGe2IrRu,0.0
LaGe2PdRh,0.0
LaGe2Rh,0.0
LaGe2RuRh,0.0
LaGe3Ir,0.0
LaGe3Os,0.0
LaGe3Rh,0.0
LaGe3Ru,0.0
LaGe5,0.0
LaGeAu,0.0
LaGeBO5,4.030800000000001
LaGeI,0.0
LaGeIr,0.0
LaGeP(SO6)2,1.4744
LaGePd,0.0
LaGePt,0.0
LaGeRu,0.0
LaH13C3S3O11,4.2977
LaH16C4Cl3O4,4.2595
LaH16N7O19,3.4143
LaH18C3S3(O2F)9,5.3933
LaH2,0.0
LaH20,0.0
LaH24C3N3(Cl2O)3,4.1757
LaH3,0.0
LaH3,0.47079999999999966
LaH3(CO2)3,4.0317
LaH3(SO4)3,4.2222
LaH3CSO7,4.2749
LaH3CSO7,4.289300000000001
LaH4C2SO8,2.8179999999999996
LaH4C4NO8,3.2798000000000003
LaH4S2NO8,4.456799999999999
LaH6(ClO3)3,2.5974000000000004
LaH6C2SNO9,3.3487
LaH6CO7,1.98
LaH6S3(NO3)3,4.3757
LaH6S3(NO3)3,4.2155
LaH9(SO6)2,4.455100000000001
LaHBr2,3.5973999999999995
LaHO,2.4314999999999998
LaHO2,3.8390000000000004
LaHSe2O7,2.6835
LaHSe3O10,1.5061
LaHf2F11,6.6091999999999995
LaHfF7,6.2752
LaHfMg14,0.0
LaHfMg30O32,0.05690000000000062
LaHfMg30O32,0.0
LaHfP(SO6)2,4.2541
LaHg,0.0
LaHg2,0.0
LaHg3,0.0
LaHgAu2,0.0
LaHgPd,0.0
LaHo3Mn8O20,1.2373000000000003
LaHoIn2,0.0
LaHoMg2,0.0
LaHoO3,4.3854999999999995
LaHoO3,4.024699999999999
LaHoRu2,0.0
LaHoS3,0.7587999999999999
LaHoSi2O7,4.9618
LaHoTl2,0.0
LaI,0.0
LaI2,0.0
LaI3,2.0709
LaIO,3.2887000000000004
LaIO3,0.7893000000000008
LaIn,0.0
LaIn(SO4)3,3.1319999999999997
LaIn2,0.0
LaIn2Cl5,2.5591
LaIn2Cu9,0.0
LaIn2Ir,0.0
LaIn2Ni3,0.0
LaIn2Ni9,0.0
LaIn2Pd,0.0
LaIn2Rh,0.0
LaIn3,0.0
LaIn4Ni,0.0
LaIn5Co,0.0
LaIn5Ir,0.0
LaIn5Rh,0.0
LaIn6Ni7,0.0
LaInAg2,0.0
LaInAu,0.0
LaInAu2,0.0
LaInCu2,0.0
LaInCu5,0.0
LaInHg2,0.0
LaInNi,0.0
LaInNi2,0.0
LaInNi5,0.0
LaInO3,2.7507
LaInPd2,0.0
LaInPt,0.0
LaInPt4,0.0
LaInRh,0.0
LaIr2,0.0
LaIr3,0.0
LaIr5,0.0
LaLuAl4,0.0
LaLuC3,0.0
LaLuIn2,0.0
LaLuMg2,0.0
LaLuO3,4.452500000000001
LaLuS3,2.2321999999999997
LaLuTl2,0.0
LaMg,0.0
LaMg(BO2)5,4.5258
LaMg(FeO3)2,0.0
LaMg11Al,0.0
LaMg12,0.0
LaMg14Al,0.0
LaMg14Bi,0.0
LaMg14Cd,0.0
LaMg14Co,0.0
LaMg14Cr,0.0
LaMg14Cu,0.0
LaMg14Fe,0.0
LaMg14Ga,0.0
LaMg14Mn,0.0
LaMg14Mo,0.0
LaMg14Nb,0.0
LaMg14Ni,0.0
LaMg14Sb,0.0
LaMg14Si,0.0
LaMg14Sn,0.0
LaMg14Ti,0.0
LaMg14V,0.0
LaMg14Zn,0.0
LaMg14Zr,0.0
LaMg15,0.0
LaMg2,0.0
LaMg2Ag,0.0
LaMg2Cr3S8,0.6417999999999999
LaMg2Cu9,0.0
LaMg2H7,2.6058999999999997
LaMg2H7Pd,0.7104999999999997
LaMg2Mn3S8,0.0
LaMg2Ni,0.0
LaMg2Ni9,0.0
LaMg2NiH7,0.9506000000000006
LaMg2Pd,0.0
LaMg2Ti3S8,0.0
LaMg2V3S8,0.0
LaMg3,0.0
LaMg30BO32,1.9868000000000006
LaMg30BO32,1.2160000000000002
LaMg4Cu,0.0
LaMg5,0.0
LaMg6Al,0.0
LaMg6Bi,0.0
LaMg6Cd,0.0
LaMg6Co,0.0
LaMg6Cu,0.0
LaMg6Ga,0.0
LaMg6Ni,0.0
LaMg6Sb,0.0
LaMg6Si,0.0
LaMg6Sn,0.0
LaMg6Zn,0.0
LaMg6Zr,0.0
LaMg7,0.0
LaMgAg,0.0
LaMgAg2,0.0
LaMgAl11O19,4.212899999999999
LaMgAl7Fe2,0.0
LaMgAu,0.0
LaMgAu2,0.0
LaMgCd2,0.0
LaMgCr2O6,0.5017000000000005
LaMgCrAgO6,0.021599999999999397
LaMgCrBiO6,0.0
LaMgCrCoO6,0.8331
LaMgCrFeO6,0.7804000000000002
LaMgCrMoO6,1.4102000000000006
LaMgCrMoO6,1.343
LaMgCrNiO6,0.0
LaMgCrS4,0.7084000000000001
LaMgCrSnO6,2.502299999999999
LaMgCrWO6,0.0
LaMgCrWO6,2.1620999999999997
LaMgCu,0.0
LaMgCu2,0.0
LaMgFeAgO6,0.07800000000000029
LaMgFeCoO6,0.6360000000000001
LaMgFeCuO6,0.0732999999999997
LaMgFeMoO6,1.2386999999999997
LaMgFeNiO6,0.0
LaMgFeSbO6,1.9064000000000005
LaMgFeSnO6,2.1909
LaMgFeWO6,2.3537
LaMgGa,0.0
LaMgHg2,0.0
LaMgI5,1.9817
LaMgI5,1.9695000000000005
LaMgI5,2.4867999999999997
LaMgI5,2.3015
LaMgI5,2.293
LaMgI5,2.4762
LaMgMnCrO6,0.9613000000000005
LaMgMnFeO6,1.4123999999999999
LaMgMnS4,0.0
LaMgNi4,0.0
LaMgPd,0.0
LaMgRh,0.0
LaMgSi2,0.0
LaMgTaCrO6,2.1235
LaMgTaFeO6,2.8630000000000004
LaMgTiCrO6,2.277100000000001
LaMgTiFeO6,2.0176999999999996
LaMgTiS4,0.0
LaMgTl,0.0
LaMgTl2,0.0
LaMgVCrO6,1.3730000000000002
LaMgVFeO6,1.0225
LaMgZn2,0.0
LaMn2BiO6,1.1351000000000004
LaMn2CdO6,0.0
LaMn2CdO6,0.7018000000000004
LaMn2Ni3,0.0
LaMn2O5,0.0
LaMn3Cr4O12,1.6430999999999996
LaMn3Ni2,0.0
LaMn3V4O12,0.0
LaMn4(BiO4)3,1.3460999999999999
LaMn4(CuO4)3,0.0
LaMn7O12,0.0
LaMn8Bi3O20,0.6680000000000001
LaMnAlNi3,0.0
LaMnCuGe2,0.0
LaMnFe3(BiO4)3,0.7831999999999999
LaMnFeGe2,0.0
LaMnFeSi2,0.0
LaMnGe,0.0
LaMnN3,0.0
LaMnNi4,0.0
LaMnO3,1.1014
LaMnO3,0.0
LaMnO3,0.5803000000000003
LaMnO3,0.5975000000000001
LaMnO3,0.07160000000000011
LaMnSbO,0.0
LaMnSi,0.0
LaMnSi2,0.0
LaMnZnFeO6,1.3254000000000001
LaMo12PbSe16,0.0
LaMo6(SeS)4,0.0
LaMoBrO4,1.8558000000000003
LaMoClO4,2.7474000000000003
LaMoI4O15,0.036599999999999966
LaMoN3,0.0
LaMoN3,1.2237999999999998
LaMoN3,1.1509
LaMoN3,0.8050999999999995
LaMoN3,1.8284000000000002
LaMoO5,2.3042
LaN,1.7188999999999997
LaN,0.0
LaN,1.1169000000000002
LaN2Cl5,2.2367999999999997
LaN3,0.4773000000000005
LaNO4,1.0973000000000002
LaNO4,2.6642
LaNO5,0.0
LaNb2AgO7,1.1368999999999998
LaNb2AgO7,1.1549999999999998
LaNb2ClO6,2.5637
LaNb2CuBrO7,0.23140000000000027
LaNb2CuBrO7,0.0
LaNb2CuClO7,0.3083999999999998
LaNb2CuClO7,0.0
LaNb3(PO4)6,1.8964999999999999
LaNb3O9,1.6369000000000002
LaNb3O9,1.5885
LaNb3Si3(SO8)3,1.6947
LaNb5O14,2.1536
LaNb7O12,0.41629999999999967
LaNb7O19,2.0872
LaNb8O14,0.0
LaNbO4,3.9322
LaNbO4,3.6083
LaNbP2SO12,2.5254
LaNbSi(SO6)2,1.723
LaNbTeO6,3.2977999999999996
LaNd(CoO3)2,1.0783000000000005
LaNd3,0.0
LaNd3(GaO3)4,3.4827
LaNd3Cr4O12,0.0
LaNd3Mn4O12,0.7596999999999996
LaNdAl4,0.0
LaNdAl6,0.0
LaNdC4,0.0
LaNdCo10,0.0
LaNdCuO4,0.0
LaNdHg2,0.0
LaNdI4,0.0
LaNdIr2,0.0
LaNdMg2,0.0
LaNdMn2O6,0.0
LaNdN2,0.05399999999999938
LaNdNi10,0.0
LaNdTl2,0.0
LaNdZn2,0.0
LaNdZr2O7,3.6203
LaNi,0.0
LaNi2,0.0
LaNi2AsN,0.0
LaNi2B2C,0.0
LaNi2GeP,0.0
LaNi2Rh3,0.0
LaNi3,0.0
LaNi3B,0.0
LaNi3Rh2,0.0
LaNi4(BiO4)3,0.43409999999999993
LaNi4B,0.0
LaNi4Pt,0.0
LaNi4Rh,0.0
LaNi5,0.0
LaNi5As3,0.0
LaNi5H6,0.0
LaNi5H7,0.0
LaNi5P3,0.0
LaNi5Sn,0.0
LaNi9Ge4,0.0
LaNiAs,0.0
LaNiBN,0.0
LaNiC2,0.0
LaNiGe2,0.0
LaNiGe3,0.0
LaNiO3,0.0
LaNiO3,0.35599999999999987
LaNiP,0.0
LaNiSb,0.0
LaNiSb2,0.0
LaNiSb3,0.0
LaNiSn,0.0
LaNiSn2,0.0
LaNiSnH,0.0
LaNiSnH2,0.0
LaO,0.0
LaO2,0.0
LaOF,4.7503
LaOF,4.5691
LaOF,4.204999999999999
LaOs2,0.0
LaOsN3,0.0
LaOsN3,0.01839999999999975
LaP,0.0
LaP2,0.5563000000000002
LaP2H44C14N7(Cl2O)2,3.7069
LaP3(HO)6,1.2776999999999998
LaP3(HO2)6,4.8393
LaP3H3WO9,3.3974
LaP3H8O7,4.8244
LaP5,0.11479999999999979
LaP5,0.0
LaP5O14,5.0007
LaP5O14,5.017200000000001
LaP7,0.7915999999999999
LaPIr,0.0
LaPO4,4.6503
LaPO4,4.2581
LaPO4,4.486000000000001
LaPO4,4.5965
LaPPd,0.0
LaPPt,0.0
LaPRh,0.0
LaPS,0.33969999999999967
LaPS4,2.4274
LaPaO4,2.329699999999999
LaPb2,0.0
LaPb3,0.0
LaPb6BrO7,1.9304999999999999
LaPb6ClO7,2.1393000000000004
LaPbAu,0.0
LaPbAu2,0.0
LaPbNO5,2.3416
LaPd,0.0
LaPd3,0.0
LaPd3S4,0.0
LaPd5,0.0
LaPdO3,0.0
LaPdO4,0.0
LaPdPb,0.0
LaPm3,0.0
LaPmGa2,0.0
LaPmIr2,0.0
LaPmMg2,0.0
LaPmRu2,0.0
LaPmTl2,0.0
LaPmZn2,0.0
LaPr(CoP)4,0.0
LaPr(MnSi)4,0.0
LaPr3,0.0
LaPr3(CoP)8,0.0
LaPr3(GaO3)4,3.4840000000000004
LaPr3Al4O12,3.9075999999999995
LaPr3Al4O12,3.2879000000000005
LaPr3Mn4O12,0.0
LaPrAl4,0.0
LaPrAl6,0.0
LaPrC4,0.0
LaPrCr2O6,2.4225000000000003
LaPrHg2,0.0
LaPrIn2,0.0
LaPrIr2,0.0
LaPrMg2,0.0
LaPrMn2O6,0.0
LaPrNi10,0.0
LaPrTl2,0.0
LaPrZn2,0.0
LaPt,0.0
LaPt2,0.0
LaPt3,0.0
LaPt5,0.0
LaReN3,0.0
LaReN3,1.3972999999999995
LaRh,0.08119999999999994
LaRh2,0.0
La2S2O,2.1692
La2S2O,2.4295
La2S3,1.9200999999999997
La2S3,1.0358
La2SO2,3.064000000000001
La2SO6,4.688
La2Sb,0.0
La2Sb4Ir3,0.0
La2SbAu3,0.0
La2SbI2,0.0
La2SbO2,0.0
La2SbO6,0.0
La2SbS5Br,1.8640999999999996
La2Sc2O5,0.051400000000001
La2ScSi2,0.0
La2Se2O,1.7862
La2Se2O,2.0543000000000005
La2Se3,1.5389999999999997
La2SeO2,2.4067
La2Si(IO2)2,3.2645999999999997
La2Si(IO2)2,2.9986000000000006
La2Si2O7,4.5641
La2Si2O7,4.3649000000000004
La2Si2O7,4.781899999999999
La2Si2O7,4.651299999999999
La2Si2PbSe8,1.9379000000000004
La2Si3,0.0
La2Si3Ni,0.0
La2Si3Rh,0.0
La2Si4CN6,2.3360000000000003
La2Si5Rh3,0.0
La2SiC(NO2)2,3.7006000000000006
La2SiGe2S5O24,0.6604
La2SiO5,4.4804
La2SiO5,4.3313
La2SiO5,4.0112000000000005
La2SiS5,2.3514999999999997
La2SiS5,2.3415
La2SiSeO4,2.2089000000000008
La2SiSn2S5O24,1.1374
La2SmS4,0.0
La2Sn2O7,2.6644999999999994
La2Sn3,0.0
La2Sn3(PbS4)3,0.5616000000000003
La2Sn4Ir,0.0
La2Sn4Ru,0.0
La2Sn5,0.0
La2Sn5Rh3,0.0
La2SnHg,0.0
La2SnS3O2,1.6742
La2SnS5,0.0
La2Ta2O9,0.20520000000000005
La2Ta2O9,0.21560000000000024
La2Ta3(SO4)2,0.7968999999999999
La2Ta3(SeO4)2,0.8937999999999997
La2TaCl3O4,3.6843
La2Tb2O7,0.0
La2TcNiO6,0.0
La2Te3,0.9992000000000001
La2Te3MoO12,3.581
La2Te4O11,3.3500999999999994
La2Te4Pb,1.2492
La2Te5,0.0
La2Te6WO18,2.6468
La2TeI2,0.0
La2TeO2,2.0286999999999997
La2TeO6,3.454399999999999
La2TeO6,2.9623999999999997
La2Th11O26,0.0
La2Th2O7,2.6619
La2Th3O9,3.0777
La2Th5O13,2.8814
La2Th8O19,2.7461
La2Th8O19,3.497399999999999
La2ThS5,1.4718999999999998
La2ThSe5,1.1181999999999999
La2ThTa(ClO2)3,4.0531
La2ThTa(ClO2)3,3.897499999999999
La2Ti2CoO8,2.2232
La2Ti2CrO9,0.5782999999999996
La2Ti2CuO8,0.0
La2Ti2O5,0.0
La2Ti2O7,2.7511
La2Ti2O7,2.746600000000001
La2Ti2O7,2.8423999999999996
La2Ti2O7,2.9171000000000005
La2Ti2SiO9,2.6015000000000006
La2Ti2SiS5O24,2.1201999999999996
La2Ti2ZnO8,2.2095
La2Ti3(AgO5)2,1.9408000000000003
La2Ti3(BiO6)2,2.0874000000000006
La2Ti3(BiO6)2,2.1281
La2Ti3AgO9,0.0
La2Ti3CoO10,1.4916
La2Ti3CuO10,0.0
La2Ti3NiO10,0.0
La2Ti3O9,2.0596
La2Ti3O9,1.9871999999999996
La2Ti3O9,2.5050999999999997
La2Ti3O9,3.781
La2Ti3O9,2.6214999999999997
La2Ti3O9,2.7657000000000003
La2Ti3O9,2.0054
La2Ti3VO10,0.0
La2Ti3ZnO10,1.7776999999999994
La2TiCo16,0.0
La2TiCoO6,0.0
La2TiCoO6,0.5484
La2TiCrO6,0.0
La2TiCuO6,0.0
La2TiMnO6,2.2131999999999996
La2TiNiO6,0.0
La2TiNiO6,2.8034
La2TiO5,3.2885999999999997
La2TiZnO6,3.0304
La2TiZnO6,2.9017999999999997
La2TlAg,0.0
La2TlCd,0.0
La2TlHg,0.0
La2TlIn,0.0
La2TlZn,0.0
La2U2Se9,0.0
La2UAs3,0.0
La2UO6,1.4113999999999995
La2US5,0.0
La2USe4,0.0
La2USe5,0.0
La2UTe4,0.0
La2UTe5,0.0
La2VCo16,0.0
La2VFeO6,0.0
La2VFeO6,0.10830000000000073
La2VZnO6,1.7017999999999995
La2W2O9,3.4184
La2WO6,3.5578999999999996
La2WO6,3.2903
La2WO6,3.5606
La2WO6,2.9876999999999994
La2WO6,3.4921999999999995
La2WO6,3.3429999999999995
La2WO6,3.3329000000000004
La2WO6,3.1375000000000006
La2YC6,0.0
La2Zn(SeO)2,2.4958
La2Zn17,0.0
La2Zn2O5,1.5065
La2Zn5Pb,0.0
La2Zn5Sn,0.0
La2ZnAg,0.0
La2ZnAs4,0.0
La2ZnBi4,0.0
La2ZnBiO6,0.0
La2ZnCoO6,0.0
La2ZnCoO6,0.5781999999999998
La2ZnCrO6,0.9615
La2ZnFeO6,0.0
La2ZnGa,0.0
La2ZnGa2S6O,2.5848000000000004
La2ZnHg,0.0
La2ZnIr,0.0
La2ZnIrO6,0.0
La2ZnMoO6,1.5064000000000002
La2ZnNi2,0.0
La2ZnNiO6,1.0987999999999998
La2ZnO4,3.033
La2ZnRhO6,0.0
La2ZnRu,0.0
La2ZnSb4,0.0
La2ZnSbO6,0.0
La2ZnSnO6,2.9267000000000003
La2ZnWO6,2.117
La2Zr2O7,3.7346
La2Zr2SiS5O24,3.4735
La2ZrCuO6,0.0
La2ZrS5,1.1334999999999997
La2ZrSe5,0.8311999999999999
La3(AgSn)4,0.0
La3(Al2Si3)2,0.0
La3(AlI)2,0.0
La3(B3Ru4)2,0.0
La3(BN2)2,0.0
La3(CrN3)2,0.0
La3(GaNi)2,0.0
La3(GaNi2)2,0.0
La3(GaRh)2,0.0
La3(GaRu)2,0.0
La3(GePd)4,0.0
La3(GeRh)2,0.0
La3(GeRh)4,0.0
La3(IO3)13,0.0
La3(MoO5)2,1.4882
La3(NbN3)2,0.0
La3(OsO5)2,0.0
La3(P3Pd10)2,0.0
La3(ReO5)2,0.0
La3(Si3Pd10)2,0.0
La3(SiNi)4,0.0
La3(SiPd)4,0.0
La3(Sn3Pd2)2,0.0
La3(TaN3)2,0.0
La3(VN3)2,0.0
La3(ZnPd)4,0.0
La3(ZnPt)4,0.0
La39Se56,0.0
La3Ag,0.0
La3AgGeS7,1.9759000000000002
La3AgSnS7,1.9522999999999993
La3AgSnSe7,1.3004999999999995
La3Al,0.0
La3Al(FeO3)4,0.0
La3Al11,0.0
La3Al2Ga3SnO14,3.6378000000000004
La3Al5O12,3.7947999999999995
La3AlC,0.0
La3AlCdS7,2.1917
La3AlCoS7,0.0
La3AlCrS7,0.04010000000000069
La3AlFeS7,0.0
La3AlN,0.0
La3AlNiS7,0.0
La3AlO,0.0
La3AlO6,4.2016
La3AlVS7,0.0
La3AlZnS7,2.1898
La3As2BrO7,3.1086
La3As2ClO7,3.1498999999999997
La3AsBr3,0.0
La3AsI3,0.0
La3AuI3,0.0
La3B(CBr)2,0.0
La3B2N5,1.1710000000000012
La3B5O12,3.8196
La3BCCl3,0.0
La3BN2O3,1.2114000000000011
La3BWO9,3.7947999999999995
La3BeAlS7,2.1074
La3BeAlS7,2.1818
La3BeBiS7,1.6185999999999998
La3BeCrS7,0.5598999999999998
La3BeGaS7,1.1195000000000004
La3BeGaS7,2.085400000000001
La3BeInS7,1.6217000000000006
La3BeSbS7,1.3986
La3BeVS7,0.0
La3Bi3O11,0.0
La3Bi4Au3,0.37929999999999975
La3Bi4Pt3,0.0
La3Br6N,3.0574999999999997
La3C2Br3,0.036900000000000155
La3C2I3,0.03289999999999971
La3C3Cl2,0.0
La3CBr5,2.2104
La3CI5,0.19200000000000017
La3Cd,0.0
La3Cd(FeO3)4,0.0
La3Ce,0.0
La3Ce4O12,0.0
La3Co,0.0
La3Co29(Si2B5)2,0.0
La3Co2CuO9,0.04499999999999993
La3Co2S7,0.0
La3Co2Sn7,0.0
La3Co3O8,0.0
La3Co4Sn13,0.0
La3CoSiS7,0.0
La3CoW(SO2)3,1.1312000000000006
La3CrS6,0.43900000000000006
La3CrW(SO2)3,0.0
La3Cu2S7,0.0
La3Cu3Bi4,0.2695999999999996
La3Cu3Sb4,0.2826000000000004
La3Cu4(As2O)2,0.0
La3Cu4(P2O)2,0.0
La3CuGeS7,1.7961
La3CuGeSe7,1.1936
La3CuS3O2,0.9670000000000005
La3CuSiS7,1.7827000000000002
La3CuSiSe7,1.5373
La3CuSnS7,1.8693999999999997
La3CuSnSe7,1.2088
La3Dy,0.0
La3DyC8,0.0
La3Er,0.0
La3Eu,0.0
La3Fe2S7,0.0
La3Fe4AgO12,0.0
La3Fe5O12,1.9344000000000001
La3FeCoS7,0.0
La3FeNiS7,0.0
La3FeO6,2.0848000000000004
La3FeSiS7,0.0
La3FeW(SO2)3,0.0
La3Ga,0.0
La3Ga4Cl,0.0
La3Ga5O12,2.869
La3Ga5SiO14,3.6931000000000003
La3Ga5SnO14,3.3113999999999995
La3GaBr3,0.0
La3GaCoS7,0.0
La3GaCuSe7,0.0
La3GaFeS7,0.06479999999999997
La3GaGe5O16,3.3745
La3GaO6,3.8351000000000006
La3GaS5O,1.1964999999999995
La3Gd(BrO)4,2.5314
La3Gd(ClO)4,3.1135
La3Ge3Br2,0.0
La3Ge3Cl2,0.0
La3Ge5,0.0
La3Ge6(Pd2Pt)2,0.0
La3H15I10O37,3.3704
La3Hf,0.0
La3HfGa5O14,3.7230999999999996
La3HfSb5,0.0
La3Hg,0.0
La3Ho,0.0
La3In,0.0
La3In2(GaO4)3,3.3646000000000003
La3In4Ge,0.0
La3InC,0.0
La3InCoS7,0.0
La3InFeS7,0.6481000000000003
La3InGe,0.0
La3InN,0.0
La3InNiS7,0.0
La3InPb4,0.0
La3InS6,1.1154000000000002
La3Ir,0.0
La3Ir2,0.0
La3Ir3O11,0.0
La3IrBr3,0.0
La3IrI3,0.0
La3IrO7,0.0
La3Lu,0.0
La3Lu2(GaO4)3,3.2850999999999995
La3LuBeS7,1.4881000000000002
La3LuSe6,0.4844999999999997
La3Mg,0.0
La3Mg2(WO6)2,0.0
La3Mg2CrS8,0.9700000000000002
La3Mg2MnS8,0.0
La3Mg2NbO9,3.086899999999999
La3Mg2TaO9,3.6582999999999997
La3Mg2TiS8,0.1042999999999994
La3Mg2VS8,0.0
La3MgAlS7,2.2951999999999995
La3MgBi5,0.0
La3MgTi3CrO12,0.0
La3MgTi4O12,0.0
La3Mn2Sb3O14,1.2379999999999995
La3Mn8BiO20,1.0979999999999999
La3MnAlS7,0.0
La3MnBi5,0.0
La3MnFeS7,0.05370000000000008
La3MnGaS7,0.0
La3MnO7,0.0
La3MnS5,0.0
La3MnW(SO2)3,0.3421000000000003
La3MnW(SO2)3,0.0
La3Mo4O16F,3.6136
La3MoO7,0.1894
La3MoO7,0.023600000000000065
La3Nb(ClO2)3,0.0
La3Nb8O24,0.0
La3NbGa5O14,0.0
La3NbO7,2.7255000000000003
La3NbO7,2.8479
La3NbP2(SO6)4,2.3836000000000004
La3NbSb5,0.0
La3NbSe2(O2F)2,1.4329999999999998
La3NbSiS5O24,1.8384000000000003
La3Nd,0.0
La3Nd(CuO4)2,0.0
La3Nd(GaO3)4,3.4201000000000006
La3Nd(GaO3)4,3.4539999999999997
La3Nd11(Si3O13)3,4.1378
La3Nd3Al22,0.0
La3NdCr4O12,2.411200000000001
La3NdMn4O12,0.0
La3NdZr4O14,3.7214
La3Ni,0.0
La3Ni13B2,0.0
La3Ni2B2N3,0.0
La3Ni2O7,0.0
La3Ni2Sn7,0.0
La3Ni3Bi4,0.0
La3Ni7P5,0.0
La3NiBr3,0.0
La3NiW(SO2)3,0.0
La3O2F5,3.5752000000000006
La3Os,0.0
La3OsI3,0.21870000000000012
La3OsO7,0.0
La3PBr3,0.0
La3PI3,0.0
La3PO7,4.053999999999999
La3Pb,0.0
La3Pb3I13O40,2.9264000000000006
La3PbC,0.0
La3PbI3,0.0
La3Pd4,0.0
La3Pm,0.0
La3Pr(CoP)8,0.0
La3PrMn4O12,0.0
La3Pt2,0.0
La3Pt3O11,0.0
La3Pt4,0.0
La3PtI3,0.17930000000000046
La3Re(ClO2)3,0.6280000000000001
La3Re2O9,0.0
La3ReO8,1.5225999999999997
La3ReO8,1.8714000000000004
La3Rh2,0.0
La3Rh4Pb13,0.0
La3Ru,0.0
La3Ru3O11,0.0
La3RuBr3,0.0
La3RuI3,0.1048
La3RuO7,0.0
La3RuO7,0.36329999999999973
La3S3N,1.3375000000000004
La3S4,0.0
La3Sb4Au3,0.5747999999999998
La3Sb5O12,3.2242999999999995
La3SbI3,0.0
La3SbO3,0.7208999999999994
La3SbO7,2.8144
La3SbO7,2.832700000000001
La3Sc,0.0
La3Sc2(GaO4)3,3.7989999999999995
La3ScAl8,0.0
La3ScBeS7,0.9344000000000001
La3ScBi5,0.0
La3ScO6,3.903699999999999
La3ScO6,4.0062
La3Se4,0.0
La3Se4Cl,1.2077999999999998
La3Si(Mo2O7)2,1.3370999999999995
La3Si2,0.0
La3Si2BO10,4.3318
La3Si2Cl3O7,3.8686
La3Si2ClO8,4.4655000000000005
La3Si2ClO8,4.411700000000001
La3Si2Rh3,0.0
La3Si2S8Br,2.4924999999999997
La3Si2S8Cl,2.6154
La3Si2S8I,2.5070000000000006
La3Si3Cl2,0.0
La3Si3Ni,0.0
La3Si6N11,2.9659000000000004
La3Si7Ni3,0.0
La3SiAgS7,1.9663000000000004
La3SiAgSe7,1.6531000000000002
La3SiBr3,0.0
La3SiCl3,0.0
La3SiI3,0.0
La3SiN3O2,1.6782000000000004
La3SiN4F,1.9716000000000005
La3SiPd5,0.0
La3Sm,0.0
La3Sm(FeO3)4,1.3941
La3SmCr2(FeO6)2,0.9318
La3SmCr4O12,2.6897
La3SmV2Cr2O12,0.7499000000000002
La3SmV3CrO12,0.8113000000000001
La3Sn,0.0
La3Sn13Ir4,0.0
La3Sn13Rh4,0.0
La3Sn13Ru4,0.0
La3Sn4,0.0
La3Sn5,0.0
La3Sn7,0.0
La3SnC,0.0
La3SnN,0.0
La3Ta(Cl3O2)2,3.5677
La3Ta(ClO2)3,0.0
La3TaCo2O9,1.9036
La3TaGa5O14,0.0
La3TaO7,3.5388
La3TaO7,3.4556000000000004
La3TaP2(SO6)4,2.8878999999999997
La3TaSiS5O24,2.4263
La3TaTi2O11,2.6892999999999994
La3Tb,0.0
La3Tb(PO4)4,4.7001
La3Te4,0.0
La3Te4Br,0.05370000000000008
La3Ti2N3O4,1.0174000000000003
La3Ti2N3O4,0.9928000000000008
La3Ti3CrO12,0.3308
La3Ti4O12,0.0
La3Ti5Al15O37,1.5589000000000004
La3TiAlS7,0.0
La3TiBeS7,0.0
La3TiCl5O4,3.3419999999999996
La3TiGa5O14,3.1237999999999997
La3TiSb5,0.0
La3Tl,0.0
La3Tl5,0.0
La3TlC,0.0
La3Tm,0.0
La3Tm2(GaO4)3,3.6917999999999997
La3U(ClO2)3,1.5771999999999995
La3U2O10,0.13170000000000126
La3U2O10,0.21050000000000058
La3UAl8,0.0
La3VH3O8,2.2922000000000002
La3W(ClO2)3,3.612400000000001
La3Y(MnSi)4,0.0
La3YSb3,0.0
La3YSc4O12,3.950799999999999
La3YTi4O14,2.8755999999999995
La3Zn,0.0
La3Zn22,0.0
La3Zn3Ge2SbO14,2.9042000000000003
La3ZnCuRh2PbO12,0.0
La3ZnNi3,0.0
La3Zr,0.0
La3ZrGa5O14,3.7184999999999997
La3ZrSb5,0.0
La4(B2O5)3,4.555999999999999
La4(CoB2)3,0.0
La4(CoO3)3,0.8247999999999998
La4(DyS2)11,0.0
La4(ErS2)11,0.0
La4(GeS4)3,1.9356
La4(HoS2)11,0.0
La4(MoO4)9,0.1577
La4(TmS2)11,0.0
La4(YS2)11,0.0
La4Ag2Se7,1.5201000000000002
La4Al2O9,3.5749000000000004
La4Al2O9,4.4174
La4Al2O9,4.3005
La4Al51W7,0.0
La4Al5Br2,0.0
La4Al6O15,4.345299999999999
La4Al6O15,1.9695
La4Al6O15,4.2388
La4As2(S2O)3,1.9121999999999995
La4As2S5O4,1.354
La4As3,0.0
La4AsBrO8,4.0802
La4Au2O9,1.9691
La4B10O21,4.139400000000001
La4B14O27,3.9245000000000005
La4B2CI5,0.0
La4B2N5,0.0
La4B4Br5,0.0
La4B4Cl5,0.0
La4B4I5,0.0
La4Bi2O9,2.5475000000000003
La4Bi2Pb,0.0
La4Bi2S9,1.0769000000000002
La4Bi3,0.0
La4Bi4S8O3F,0.0
La4BiPb2,0.0
La4Br3ClO4,3.7675
La4BrCl3O4,3.9305000000000003
La4C2Br5,0.0
La4C2Cl5,0.0
La4C2I5,0.0
La4C5Cl2,0.0
La4CI6N,1.1841
La4Cd4In2S13,1.1568999999999994
La4CdCo,0.0
La4CdIr,0.0
La4CdNi,0.0
La4CdPd,0.0
La4CdPt,0.0
La4CdRu,0.0
La4CePd15,0.0
La4CeZn5,0.0
La4Co2Sn5,0.0
La4Co3O10,0.0
La4Co3ReO12,0.0
La4CoO8,0.29719999999999924
La4CoO8,0.9386000000000001
La4CoS7,0.0
La4Cu3MoO12,0.2684999999999995
La4Cu3MoO12,0.0
La4Cu3MoO12,1.7031
La4Cu3Sb8,0.0
La4Cu3SeO12,0.0
La4Cu3TeO12,0.0
La4Cu4Se3SO4,1.5626000000000007
La4Cu4SeS3O4,1.6142999999999992
La4Cu5As8,0.0
La4Cu5Sb8,0.0
La4Cu6(MoO4)9,1.4495999999999998
La4CuNiO8,0.0
La4CuO8,0.0
La4DyC10,0.0
La4Fe(CoO4)3,0.0
La4Fe(NiO4)3,0.0
La4Fe(NiO5)2,0.0
La4Fe(SbS5)2,0.0799000000000003
La4Fe(SbSe5)2,0.0
La4Fe3NiO12,0.0
La4FeAs4Ru3O4,0.0
La4FeO8,0.6906999999999996
La4FeS7,0.0
La4FeSe6O,1.6101999999999999
La4FeSe6O,1.6208999999999998
La4FeSe6O,0.0