formula,band_gap
Ca2VN2,0.0
Ca2VN3,1.6511999999999998
Ca2VP3H4O13,2.076
Ca2VP3O11,2.2803
Ca2VSbO6,0.0
Ca2VWO6,0.8828999999999994
Ca2VWO6,1.021
Ca2VWO6,0.0
Ca2W3O8,2.7728999999999995
Ca2WN2,0.0
Ca2WO5,2.7236000000000002
Ca2WO5,2.9399
Ca2Y2Si4CO16,0.1594
Ca2Y2Si4H2CO16,5.1278
Ca2Y3Si3O13,0.0
Ca2Y3Si3O13,0.27590000000000003
Ca2YAgO5,0.0
Ca2YAs(WO6)2,3.6918999999999995
Ca2YBeO5,0.0
Ca2YBiO5,2.3922999999999996
Ca2YBiO6,2.1220999999999997
Ca2YCoO5,0.5688
Ca2YCrO5,2.1246
Ca2YCuO5,0.0
Ca2YFe3(SnO6)2,0.0
Ca2YFe4SbO12,1.6679999999999997
Ca2YFeO5,0.9384000000000001
Ca2YMn3O9,0.0
Ca2YMnO5,0.2160000000000002
Ca2YNbO6,3.3203
Ca2YNiO5,0.0
Ca2YSbO5,2.9151
Ca2YSnO5,2.4941000000000004
Ca2YTiO5,0.0
Ca2YVO5,1.6137000000000001
Ca2Zn,0.0
Ca2Zn2CuP3,0.27780000000000005
Ca2Zn3Ag,0.0
Ca2Zn3Ga,0.0
Ca2Zn3Si3PbO12,3.7221
Ca2Zn4As4O17,0.05699999999999994
Ca2ZnAs2(H2O5)2,3.3532
Ca2ZnAs2(H2O5)2,3.3688000000000002
Ca2ZnCd,0.0
Ca2ZnFe(SiO3)4,3.2058
Ca2ZnGa,0.0
Ca2ZnGa3,0.0
Ca2ZnGe2O7,3.0488
Ca2ZnHg,0.0
Ca2ZnIn,0.0
Ca2ZnN2,0.7618
Ca2ZnP2(H2O5)2,4.6954
Ca2ZnPb,0.0
Ca2ZnRh,0.0
Ca2ZnSb2,0.0
Ca2ZnSi2O7,4.0553
Ca2ZnSn,0.0
Ca2Zr(SiO3)4,4.8495
Ca2Zr5Ti2O16,3.1195000000000004
Ca2Zr5Ti2O16,2.9678
Ca2ZrFeO6,0.0
Ca2ZrNbO6,0.0
Ca2ZrSnO6,3.5577
Ca2ZrTi(GeO5)2,3.0146
Ca2ZrTi(SiO5)2,3.1228000000000002
Ca2ZrTiO6,2.3932999999999995
Ca3(AlAs2)2,1.1101
Ca3(AlAs2)2,1.1222999999999996
Ca3(AlGe)2,0.0
Ca3(AlN2)2,2.1954000000000002
Ca3(AlN2)2,2.5263999999999998
Ca3(AlN2)2,2.2854
Ca3(AlP2)2,1.2481999999999998
Ca3(AlSi)2,0.0
Ca3(AsO4)2,3.6298000000000004
Ca3(B3Rh4)2,0.0
Ca3(BN2)2,2.4714000000000005
Ca3(BN2)2,2.4178
Ca3(BO3)2,4.8224
Ca3(Bi2Pd)4,0.0
Ca3(Cd2Pt)4,0.0
Ca3(CdGa2)2,0.0
Ca3(CoO3)2,0.9202999999999997
Ca3(CoO3)2,0.3308
Ca3(CoO3)2,0.0
Ca3(CrN2)2,0.0
Ca3(Cu2Sn)4,0.0
Ca3(CuO3)2,0.0
Ca3(Fe3O5)5,0.0
Ca3(FeN2)2,0.0
Ca3(GaN2)2,1.9148000000000005
Ca3(GaNi)4,0.0
Ca3(GaP2)2,0.9434000000000005
Ca3(GaPd)2,0.0
Ca3(GaPt)2,0.0
Ca3(GeAs2)2,0.6160999999999999
Ca3(GeIr)4,0.0
Ca3(GeP2)2,0.7361999999999997
Ca3(HO3)2,2.9383
Ca3(InAs2)2,0.0
Ca3(InGa2)2,0.0
Ca3(InN2)2,0.8331999999999997
Ca3(InN2)2,0.8519000000000005
Ca3(InNi2)4,0.0
Ca3(IrN2)2,0.21550000000000047
Ca3(MgZn2)5,0.0
Ca3(MnN2)2,0.0
Ca3(MoN2)2,0.0
Ca3(OsN2)2,0.0
Ca3(PO4)2,4.9039
Ca3(PO4)2,5.4644
Ca3(PO4)2,4.9795
Ca3(PO4)2,4.5074
Ca3(RhN2)2,0.0
Ca3(Ru2O7)2,0.0
Ca3(RuN2)2,0.0
Ca3(SbN2)2,1.5422000000000002
Ca3(Si4P7)2,1.2361000000000004
Ca3(SiAs2)2,0.823
Ca3(SiIr)4,0.0
Ca3(SiP2)2,0.8441999999999998
Ca3(TaN2)2,0.045399999999999885
Ca3(TiN2)2,0.0
Ca3(TiS2)4,0.0
Ca3(TiS2)8,0.0
Ca3(VN2)2,0.0
Ca3(WN2)2,0.0
Ca3(WN2)2,0.00849999999999973
Ca31Sn20,0.0
Ca33In4P28Pb3O112,4.0556
Ca33Mo27O80,0.0
Ca36Sn23,0.0671999999999997
Ca3Ac,0.0
Ca3Ag,0.0
Ca3Ag2(GeO4)3,0.20399999999999996
Ca3Ag8,0.0
Ca3Al2(GeO4)3,3.5021
Ca3Al2(HO)12,4.1187000000000005
Ca3Al2(SiO4)3,4.992699999999999
Ca3Al2Ge3,0.0
Ca3Al2H6S(OF)8,5.7404
Ca3Al2O6,4.0091
Ca3Al3N5,2.5573000000000006
Ca3Al4CoO10,2.3876999999999997
Ca3Al4CoO10,2.6372999999999998
Ca3Al4Si8(ClO12)2,3.6088000000000005
Ca3Al4SiO12,0.0
Ca3Al4ZnO10,3.5446999999999997
Ca3Al7Ag2,0.0
Ca3Al7Cu2,0.0
Ca3AlAs3,0.7300999999999997
Ca3AlCd17,0.0
Ca3AlFe(SiO4)3,2.9724999999999997
Ca3AlN3,2.4565
Ca3AlSb3,0.25340000000000007
Ca3AsBr3,1.6726
Ca3AsCl3,1.8439
Ca3AsI3,2.1921
Ca3AsN,0.8940000000000001
Ca3AsN,0.7169999999999996
Ca3AsP,0.19269999999999987
Ca3Au,0.0
Ca3Au4,0.0
Ca3AuN,0.0
Ca3B4(H4O)3,4.7904
Ca3B6(H4O5)4,5.4566
Ca3BCBr2N,2.2271
Ca3BCNCl2,2.1079000000000003
Ca3BI3N2,3.9459999999999997
Ca3BN3,0.5682
Ca3Be2P4(HO2)10,5.319
Ca3Be2P4(HO2)10,4.8974
Ca3Be2Si3(HO6)2,5.168799999999999
Ca3Bi2(AsO6)2,0.19900000000000007
Ca3Bi2O7,0.0
Ca3BiAs,0.0
Ca3BiAu14,0.0
Ca3BiN,0.36870000000000047
Ca3BiP,0.0759000000000003
Ca3C3Cl2,1.2768000000000002
Ca3Cd,0.0
Ca3Cd2,0.0
Ca3Cd5(P2O7)4,3.4996
Ca3CdO4,1.7349
Ca3CdO4,2.52
Ca3Co(SeO3)4,2.7443999999999997
Ca3Co2(GeO4)3,2.1129999999999995
Ca3Co2(Si2O7)2,1.2255000000000003
Ca3Co2(Si2O7)2,1.3937
Ca3Co2(SiO4)3,1.9902999999999995
Ca3Co2(TeO6)2,0.7887999999999997
Ca3Co2(WO6)2,0.9476
Ca3Co2O7,0.17449999999999966
Ca3Co2O7,0.3367
Ca3Co3(AsO4)4,2.467
Ca3Co3N5,0.0
Ca3Co4O9,0.0
Ca3Co4Sn13,0.0
Ca3CoN3,0.0
Ca3CoO6,0.0
Ca3CoO6,0.21289999999999987
Ca3CoO6,0.1887000000000001
Ca3CoO6,0.20669999999999988
Ca3CoRhO6,0.0
Ca3CoRhO6,0.024499999999999744
Ca3CoRhO6,0.7603999999999997
Ca3Cr2(GeO4)3,2.9977000000000005
Ca3Cr2(Si2O7)2,2.4673999999999996
Ca3Cr2(SiO4)3,3.0111
Ca3Cr2O7,0.0
Ca3Cr3(AsO4)4,1.8288000000000002
Ca3Cr3(PO4)4,3.2415999999999996
Ca3Cr3N5,0.0
Ca3Cr6(FeO6)4,0.5525999999999998
Ca3CrN3,0.0
Ca3Cu2(BrO2)2,0.0
Ca3Cu2(ClO2)2,0.0
Ca3Cu2(GeO4)3,0.5154000000000001
Ca3Cu2(Si2O7)2,0.0942999999999996
Ca3Cu2(SiO4)3,0.3857999999999997
Ca3Cu2Ni(PO4)4,0.14829999999999988
Ca3Cu3(AsO4)4,0.7189000000000001
Ca3Cu3(PO4)4,0.6475
Ca3Cu5Si9O26,0.0
Ca3Cu6(AsO4)8,0.10070000000000001
Ca3Cu6(PO4)8,0.04139999999999999
Ca3CuIrO6,0.0
Ca3CuN3,0.0
Ca3CuRhO6,0.0
Ca3Dy,0.0
Ca3Er2(SnS4)3,0.7532000000000005
Ca3Er3Ge2BO13,3.8416999999999994
Ca3Er3Ge2BO13,3.6346
Ca3Eu,0.0
Ca3Fe2(GeO4)3,2.4209000000000005
Ca3Fe2(MoO6)2,0.0
Ca3Fe2(ReO6)2,1.3365
Ca3Fe2(RhO6)2,0.0
Ca3Fe2(SbO6)2,0.0
Ca3Fe2(SeO3)6,1.9936
Ca3Fe2(Si2O7)2,2.2344
Ca3Fe2(SiO4)3,2.3832999999999998
Ca3Fe2(WO6)2,1.9666000000000001
Ca3Fe2(WO6)2,1.7685
Ca3Fe2Br2O5,0.0
Ca3Fe2Cl2O5,0.0
Ca3Fe2O7,0.0
Ca3Fe3(AsO4)4,2.3041
Ca3Fe3(SbO6)2,0.05830000000000002
Ca3Fe3N5,0.0
Ca3Fe4(MoO4)6,1.2851000000000004
Ca3Fe4(SbO4)6,1.6100999999999996
Ca3Fe4(WO4)6,2.0509999999999997
Ca3Fe5Sn3O16,0.0
Ca3Fe6(SnO8)2,1.5414000000000003
Ca3Fe7(SiO4)6,2.5679000000000003
Ca3FeN3,0.0
Ca3FeRhO6,1.0555000000000003
Ca3Ga2(FeO5)2,0.0798000000000001
Ca3Ga2(Ge2O7)2,3.0145
Ca3Ga2(GeO4)3,2.9786
Ca3Ga2(SiO4)3,4.2496
Ca3Ga2(SnO4)3,2.6319
Ca3Ga2(SnO4)3,2.7302000000000004
Ca3Ga2Si(SnO6)2,2.9215
Ca3Ga3(SnO6)2,0.0
Ca3Ga3Ge3O14,0.0
Ca3Ga3Ir2,0.0
Ca3Ga3N5,1.7016999999999998
Ca3Ga3Rh2,0.0
Ca3Ga4O9,2.6392999999999995
Ca3Ga5,0.0
Ca3Ga8,0.0
Ca3GaAs3,0.33299999999999974
Ca3GaN3,0.8826
Ca3GdAl8,0.0
Ca3Ge(ClO2)2,4.1976
Ca3Ge13Ir4,0.0
Ca3Ge13Rh4,0.0
Ca3Ge2Au9,0.0
Ca3Ge3(BiO6)2,2.9814999999999996
Ca3Ge3(MoO6)2,1.8503000000000003
Ca3Ge3(RhO6)2,1.5931000000000002
Ca3Ge3(SbO6)2,2.2547999999999995
Ca3Ge3(WO6)2,2.0729
Ca3Ge3Au8,0.0
Ca3Ge4,0.33119999999999994
Ca3Ge4Au7,0.0
Ca3GeH12S2O17,4.5834
Ca3GeN,0.0
Ca3GeO,0.14019999999999921
Ca3GeO,0.0
Ca3Hf2AlFeSiO12,3.0174000000000003
Ca3Hf2Fe2SiO12,2.3306999999999998
Ca3Hf3AgF20,0.8421000000000001
Ca3HfSi2O9,4.678
Ca3Hg,0.0
Ca3Hg2,0.0
Ca3Ho,0.0
Ca3HoMn4O12,0.0
Ca3In,0.0
Ca3In2(GeO4)3,2.6717999999999997
Ca3In2(SiO4)3,3.668
Ca3In2O6,1.9618000000000002
Ca3In3N5,0.5723000000000003
Ca3InAu3,0.0
Ca3InN3,0.5342000000000002
Ca3InP3,0.9918000000000005
Ca3La2Sb3O14,0.0
Ca3La3(BO3)5,4.1370000000000005
Ca3La32(OsI12)5,0.0
Ca3La5Mn6(CuO12)2,0.0
Ca3La5Mn7CrO24,0.0
Ca3La5Mn7FeO24,0.0
Ca3La5Mn7NiO24,0.0
Ca3La7Ti5Cr5O30,0.0
Ca3LaFe2(MoO6)2,0.7500999999999998
Ca3LaMn2(IrO6)2,0.0
Ca3LaMn4O12,0.0
Ca3LaMn4O12,0.008399999999999963
Ca3LaSi8,0.0
Ca3LaTi2Cr2O12,0.7309000000000001
Ca3Lu,0.0
Ca3Lu2(GeO4)3,3.2916
Ca3Mg,0.0
Ca3Mg(SiO4)2,3.8228
Ca3Mg(SiO4)2,4.8796
Ca3Mg2(AsO4)3,0.0
Ca3Mg2Fe(CO3)6,4.030200000000001
Ca3Mg2Ni13,0.0
Ca3Mg3(PO4)4,5.0058
Ca3Mg4Zn11,0.0
Ca3Mg5(SiO3)8,4.7643
Ca3Mg9Al8(SiO4)12,4.980499999999999
Ca3MgFe2(CO3)6,3.8204000000000002
Ca3MgNi14,0.0
Ca3Mn2(FeO5)2,0.0
Ca3Mn2(GaO5)2,0.22419999999999995
Ca3Mn2(GaO5)2,0.12670000000000003
Ca3Mn2(GeO4)3,0.0
Ca3Mn2(GeO4)3,1.017
Ca3Mn2(IrO6)2,0.0
Ca3Mn2(SbO6)2,0.5124
Ca3Mn2(Si2O7)2,1.6320999999999994
Ca3Mn2(SiO4)3,1.1067999999999998
Ca3Mn2(SiO4)3,0.0
Ca3Mn2(WO6)2,1.7350000000000003
Ca3Mn2O7,0.22739999999999982
Ca3Mn2O7,0.4097999999999997
Ca3Mn2O7,0.0
Ca3Mn2SbO9,0.10040000000000004
Ca3Mn2WO9,0.32030000000000003
Ca3Mn3(AsO4)4,2.0392
Ca3Mn3N5,0.0
Ca3Mn4BiO12,0.0
Ca3Mn4O8,0.0
Ca3MnCoO6,2.1034
Ca3MnCoO6,0.44209999999999994
Ca3MnCuO6,0.6747999999999998
Ca3MnH12S2O17,2.363
Ca3MnN3,0.0
Ca3MnNiO6,0.0
Ca3MnO4,2.908
Ca3MnO4,2.5182
Ca3MnZnO6,2.2453000000000003
Ca3Mo2O7,1.4979000000000005
Ca3Mo3N5,0.0
Ca3MoN3,0.0
Ca3N2,0.7787000000000002
Ca3N2,1.4173000000000004
Ca3N2,1.3741999999999996
Ca3N2,1.3593000000000002
Ca3N2,1.2985999999999995
Ca3N2,1.1111
Ca3Nb2CoO9,2.1471000000000005
Ca3Nb3N5,0.0
Ca3Nb4(O6F)2,2.6894
Ca3Nb4(O6F)2,2.9837
Ca3NbGa3(SiO7)2,3.4364000000000003
Ca3NbO6,0.0
Ca3Nd,0.0
Ca3Nd2Sb3O14,0.0
Ca3Nd4Nb6(FeO14)2,0.0
Ca3Nd8(RuO6)4,0.0
Ca3NdF9,6.1386
Ca3NdMn2O8,0.0
Ca3NdMn4O12,0.0
Ca3Ni2(GeO4)3,0.2915000000000001
Ca3Ni2(WO6)2,0.0
Ca3Ni2O7,0.0
Ca3Ni3(AsO4)4,2.9326999999999996
Ca3Ni7B2,0.0
Ca3NiN3,0.0
Ca3Os3N5,0.0
Ca3P2,0.3549000000000002
Ca3P4H20(NO10)2,4.732900000000001
Ca3PCl3,1.8419000000000003
Ca3PI3,2.1548
Ca3PN,0.8055999999999996
Ca3Pb,0.0
Ca3Pb3I14,0.0
Ca3PbO,0.0
Ca3PbSe4,1.9181999999999997
Ca3Pd,0.0
Ca3Pd2,0.0
Ca3Pm,0.0
Ca3Pr2Sb3O14,0.0
Ca3Pt2,0.0
Ca3ReN3,0.0
Ca3ReN4,0.0
Ca3ReO6,0.0
Ca3RhN3,0.0
Ca3Ru2O7,0.0
Ca3Ru3N5,0.0
Ca3Sb2O7,0.0
Ca3SbAs,0.40059999999999985
Ca3SbI3,1.8545999999999996
Ca3SbN,0.40750000000000064
Ca3SbP,0.6583000000000001
Ca3Sc2(GeO4)3,3.4661999999999997
Ca3Sc2(SiO4)3,4.1025
Ca3Sc2N4,2.2562
Ca3Sc2N4,1.9368000000000003
Ca3Sc3N5,1.8365
Ca3ScCoO6,0.8569
Ca3ScFe(SiO4)3,3.0517000000000003
Ca3Si(ClO2)2,4.1532
Ca3Si2(H3O5)2,4.856300000000001
Ca3Si2GeO9,4.363
Ca3Si2Ni3,0.0
Ca3Si2O7,4.5351
Ca3Si2O7,4.6202000000000005
Ca3Si2SnO9,3.5221
Ca3Si3(AgO6)2,0.1654
Ca3Si3(BiO6)2,3.2982000000000005
Ca3Si3(HO5)2,4.7459999999999996
Ca3Si3(MoO6)2,3.077000000000001
Ca3Si3(NiO6)2,0.01429999999999998
Ca3Si3(SbO6)2,2.9629000000000003
Ca3Si3(SnO6)2,0.0
Ca3Si3(WO6)2,2.4811999999999994
Ca3Si4,0.4162000000000008
Ca3Si4(AgO7)2,0.7307000000000001
Ca3Si4(BiO7)2,2.8719000000000006
Ca3Si4(MoO7)2,0.5236000000000001
Ca3Si4(NiO7)2,0.4668000000000001
Ca3Si4(SbO7)2,2.3761
Ca3Si4(SnO7)2,2.8973999999999993
Ca3Si4(SnO7)2,2.1484999999999994
Ca3SiBr2,0.0
Ca3SiBr2,0.31700000000000017
Ca3SiH30CSO25,4.4149
Ca3SiO,0.18660000000000032
Ca3SiO,0.0699999999999994
Ca3SiO,0.05659999999999954
Ca3SiO4F,0.0
Ca3SiO5,3.8608
Ca3SiO5,3.6973
Ca3SiO5,2.9146
Ca3SiO5,3.0522
Ca3SiO5,3.2782
Ca3SiO5,3.9850999999999996
Ca3Sm,0.0
Ca3SmMn4O12,0.0
Ca3Sn,0.0
Ca3Sn13Ir4,0.0
Ca3Sn13Pt4,0.0
Ca3Sn13Rh4,0.0
Ca3Sn2(GeO4)3,0.0
Ca3Sn2O7,2.5854000000000004
Ca3Sn2S7,1.1259000000000001
Ca3Sn2S7,2.0608000000000004
Ca3Sn2S7,0.6240000000000006
Ca3Sn2S7,0.4588000000000001
Ca3Sn2S7,1.7828000000000004
Ca3Sn3(AsO4)4,2.5585999999999998
Ca3Sn4S11,0.1781000000000006
Ca3Sn4S11,0.004999999999999893
Ca3Sn5S13,0.4285
Ca3SnH2,0.11179999999999968
Ca3SnO,0.0
Ca3SnS5,1.6955
Ca3SnS5,2.0189000000000004
Ca3SnS5,1.9459
Ca3Ta2Mn2O12,0.4045000000000001
Ca3Ta2O8,4.1056
Ca3Ta2O8,4.5215000000000005
Ca3Ta2O8,4.2097
Ca3Ta3N5,0.0
Ca3Ta4(O6F)2,3.5696000000000003
Ca3Ta4(O6F)2,3.8739
Ca3Ta6(FeO6)4,2.7559
Ca3TaGa3(SiO7)2,3.9122000000000003
Ca3Tb,0.0
Ca3TbMn4O12,0.0
Ca3TeO6,3.2598
Ca3Ti(FeO4)2,1.9588999999999999
Ca3Ti2(GeO4)3,0.007200000000000095
Ca3Ti2(Si2O7)2,0.06510000000000016
Ca3Ti2(SiO4)3,0.06930000000000014
Ca3Ti2AlSi3O14F,3.0113000000000003
Ca3Ti2O7,2.5302000000000002
Ca3Ti3Cr2O12,3.0906999999999996
Ca3Ti3N5,0.0
Ca3Ti3Si2GeO15,2.8822
Ca3Ti4PbO12,1.6864999999999997
Ca3TiAl2Si3O13F2,3.0993
Ca3TiBe2Si2(As3O10)2,2.6361999999999997
Ca3TiN3,0.48960000000000026
Ca3TiNiO6,3.1552
Ca3Tl,0.0
Ca3Tl2O6,0.7309999999999999
Ca3Tl4O9,0.8115999999999999
Ca3Tl4O9,0.3713999999999995
Ca3Tl5,0.0
Ca3TlN,0.0
Ca3TlO5,0.0
Ca3Tm2(GeO4)3,3.2590000000000003
Ca3UN4,1.3332999999999995
Ca3UN4,1.3689
Ca3UO6,2.1988999999999996
Ca3UO6,2.2600999999999996
Ca3UO6,2.1479
Ca3V10O25,0.9242000000000001
Ca3V2(BiO6)2,0.5543
Ca3V2(GeO4)3,0.0
Ca3V2(Si2O7)2,0.14429999999999943
Ca3V2(SiO4)3,1.8973000000000004
Ca3V2O7,0.9998000000000005
Ca3V2O8,3.478
Ca3V2O8,3.4422000000000006
Ca3V2O8,3.5784
Ca3V3(AsO4)4,0.8916
Ca3V3(CoO6)2,0.0
Ca3V3(CuO6)2,0.0
Ca3V3(NiO6)2,0.0
Ca3V3N5,0.0
Ca3V6(FeO6)4,2.3211
Ca3VN3,0.7644999999999995
Ca3W2O7,2.4024
Ca3W2O9,3.4497
Ca3W2O9,3.2671
Ca3W3N5,0.0
Ca3WCl2O5,3.9325
Ca3WO6,3.2967
Ca3WO6,3.4486999999999997
Ca3Y,0.0
Ca3Y2(GeO4)3,3.2592
Ca3Y2(SiO4)3,3.8000999999999996
Ca3Y2N4,1.0999999999999996
Ca3Y3N5,0.8575999999999997
Ca3Y9Al18CrSiO48,0.5981999999999998
Ca3YAl3B4O15,4.4422
Ca3YGa3B4O15,3.9960999999999998
Ca3YMn3B4O15,1.0985
Ca3YTi4O12,0.0
Ca3Zn,0.0
Ca3Zn2(CuP2)2,0.042899999999999494
Ca3Zn3(TeO6)2,2.1295999999999995
Ca3Zn3(TeO6)2,1.8503999999999996
Ca3ZnGe5O14,2.1462
Ca3Zr17O37,0.0
Ca3Zr2AlFeSiO12,3.0066
Ca3Zr2Fe2SiO12,2.5948
Ca3Zr2O7,3.3234
Ca3ZrSi2O9,4.1198999999999995
Ca4(CuO2)5,0.0
Ca4(H4Rh)3,0.0
Ca4(PPd)5,0.0
Ca43Al16Pb13,0.23899999999999988
Ca4Al11Si13(AgO16)3,2.4763
Ca4Al2H22CO20,4.3173
Ca4Al2P2H10O13F8,5.421900000000001
Ca4Al3CrSiBO14,2.5197999999999996
Ca4Al51Cr7,0.0
Ca4Al5CrSi6(HO13)2,4.0168
Ca4Al5FeSi6(HO13)2,2.714
Ca4Al6CrO16,2.8012
Ca4Al6MoO16,3.9061000000000003
Ca4Al6MoO16,3.3371000000000004
Ca4Al6O13,3.6188000000000002
Ca4Al6O13,3.6557000000000004
Ca4Al6O13,3.9417999999999997
Ca4Al6SO12,3.7247000000000003
Ca4Al6SO16,4.4065
Ca4Al6SO16,4.4998000000000005
Ca4Al6SO16,3.848
Ca4Al6SO16,4.6682
Ca4Al6SO16,4.456099999999999
Ca4Al6TeO12,3.1464999999999996
Ca4Al6WO16,3.9756
Ca4Al6WO16,0.22719999999999985
Ca4Al6WO16,3.9818000000000002
Ca4AlSiH24SO16F13,5.5254
Ca4AlZn43,0.0
Ca4As2O,1.2134999999999998
Ca4As3,0.6617000000000002
Ca4As3H9O16,3.9317
Ca4As7Ir8,0.0
Ca4Be2Al2Si9(HO14)2,4.933
Ca4Be2Al2Si9O28,0.5991
Ca4Be4P4O17F3,0.7892999999999999
Ca4Bi2O,0.8131000000000004
Ca4Bi6O13,1.7027999999999994
Ca4Bi6O13,1.1427999999999998
Ca4Bi6O13,1.8461999999999996
Ca4CN4,1.7906999999999997
Ca4Cd3Au,0.0
Ca4Cd3Au5,0.0
Ca4Ce2TiSi4(BO6)4,3.9650000000000003
Ca4Cl6O,5.2239
Ca4Co3Si8NiO24,3.1496000000000004
Ca4Co5(TeO6)3,1.5187000000000004
Ca4CoN4,0.0
Ca4CoSi8(NiO8)3,3.8886
Ca4Cr5(TeO6)3,0.9722
Ca4CrFe3O10,1.7498000000000005
Ca4CrN4,0.0
Ca4CrN4,1.1360999999999994
Ca4Cu5(TeO6)3,0.011099999999999888
Ca4Er2(Sn5Pt3)3,0.0
Ca4ErB3O10,4.4289
Ca4Fe3As8Pt,0.0
Ca4Fe5(Si3O14)2,0.0
Ca4Fe5(TeO6)3,1.0503999999999998
Ca4Fe9O17,0.16140000000000043
Ca4Ga3FeO10,0.0
Ca4GaSi3,0.0
Ca4GaSn3,0.0
Ca4GdB3O10,3.0999
Ca4Ge3Au5,0.0
Ca4Ge3O11,0.0
Ca4GeN4,1.5739
Ca4H16C8O25,0.16290000000000004
Ca4HfN4,1.2158000000000002
Ca4Hg9,0.0
Ca4I6O,3.2907999999999995
Ca4In2N,0.0
Ca4In3Au10,0.0
Ca4IrN4,0.0
Ca4IrO6,0.0
Ca4La4Mn7NiO24,0.0
Ca4LaB3O10,4.3032
Ca4Mg13Zn29,0.0
Ca4Mg3Fe(SiO3)8,4.1563
Ca4Mg3H14,3.1113
Ca4Mg3Si8NiO24,4.7374
Ca4Mg4Fe3H22,1.4456000000000002
Ca4Mg4P4O17F3,0.8282
Ca4Mg4V3AsO20,0.7126999999999999
Ca4MgAl2Si3O14,4.308999999999999
Ca4MgAl3,0.0
Ca4MgB4(CO9)2,0.0
Ca4MgB4H6(CO9)2,4.2989
Ca4MgCo(AsO5)4,0.025399999999999978
Ca4MgSi8(NiO8)3,4.7986
Ca4MgSn3,0.0
Ca4MgZnAs4(H2O5)4,3.5302
Ca4Mn2Al2O11,0.0
Ca4Mn2O7,0.0
Ca4Mn3AlO10,0.14939999999999998
Ca4Mn3AlO10,0.0
Ca4Mn3AlO11,0.0
Ca4Mn3AlO11,0.07410000000000005
Ca4Mn3B3CO15,1.4971000000000005
Ca4Mn3CrO10,0.44689999999999985
Ca4Mn3CrO11,0.0
Ca4Mn3CrO12,0.0
Ca4Mn3CrO12,0.3445999999999998
Ca4Mn3O10,0.2970999999999999
Ca4Mn3SbO12,0.24080000000000013
Ca4Mn3SbO12,0.7241
Ca4Mn4O11,0.0
Ca4Mn5Al(Si3O14)2,0.0
Ca4MnFe11Si8(HO9)4,0.5691000000000002
Ca4MnFe3(SiO3)10,0.0
Ca4MnFe3O10,1.4301
Ca4MnN4,0.0
Ca4Nb2(SO4)9,2.4022
Ca4Nb2O9,3.0355999999999996
Ca4Nb2O9,2.4271000000000003
Ca4Nb2O9,2.4215
Ca4Nb2O9,2.8715999999999995
Ca4NbGaO8,3.2825999999999995
Ca4NdB3O10,4.3686
Ca4Ni20H,0.0
Ca4Ni3C5,0.0
Ca4Ni4Ge3,0.0
Ca4Ni5(TeO6)3,1.7952999999999997
Ca4OsN4,0.0
Ca4P2O,1.2714000000000003
Ca4P2O9,4.747400000000001
Ca4P6O19,5.361800000000001
Ca4P7Ir8,0.0
Ca4PbN4,0.0
Ca4PbN4,0.8324000000000003
Ca4PdO6,1.8226999999999998
Ca4PtN4,0.0
Ca4PtO6,2.3916999999999997
Ca4ReN4,0.0
Ca4Rh6Pb19,0.0
Ca4RhN4,0.0
Ca4RuN4,0.0
Ca4Sb2O,0.9078999999999997
Ca4Sb2S,1.0818999999999992
Ca4SeN4,0.0
Ca4Si2H2CO11,4.6256
Ca4Si2O7F2,4.5611999999999995
Ca4Si3(BO4)5,0.137
Ca4Si3B5(HO4)5,5.4639
Ca4Si3H2O11,4.7044
Ca4Si3O11,0.6341999999999999
Ca4Si3Pd4,0.0
Ca4Si6Pb6Cl2O21,3.3861
Ca4SiN4,1.4498000000000002
Ca4SiP4,1.1988000000000003
Ca4Sm2Cu3(ClO2)4,0.5547000000000004
Ca4SmB3O10,4.3982
Ca4Sn3S10,0.9441000000000006
Ca4Sn3S10,0.9444999999999997
Ca4Sn5S14,0.8258000000000001
Ca4SnN4,2.8888
Ca4SnS6,2.2252
Ca4SnS6,1.8131999999999997
Ca4Ta2(SO4)9,3.1421
Ca4Ta2O9,4.4946
Ca4Ta2O9,4.500500000000001
Ca4Ta2O9,3.7748000000000004
Ca4Ta2O9,4.1648
Ca4Te5O14,2.6999999999999997
Ca4TeN4,0.0
Ca4ThF12,5.5383
Ca4Ti3AlSi4O19F,2.9757999999999996
Ca4Ti3FeO12,0.0
Ca4Ti3O10,2.4425
Ca4Ti3Si4SnO20,2.9791
Ca4Ti4Si3GeO20,2.9699999999999998
Ca4Ti5(TeO6)3,0.046800000000000175
Ca4TiMn3O10,0.018100000000000005
Ca4TiMn3O10,0.0028999999999999027
Ca4TiMn3O11,0.0
Ca4TiMn3O12,0.0
Ca4TiMn3O12,0.4592999999999998
Ca4TiN4,1.5392000000000001
Ca4TiSi4Sn3O20,3.1716
Ca4Tl2CO9,1.3965
Ca4Tl3O9,0.0
Ca4UAl2(SiO5)3,0.0
Ca4V5(TeO6)3,0.15200000000000014
Ca4VN4,0.12380000000000013
Ca4Y2Al7Cr2SiO24,0.47799999999999976
Ca4YB3O10,4.4498
Ca4YFe5O13,1.0376000000000003
Ca4Zn2Cu3P5,0.0
Ca4Zn3Fe(SiO3)8,3.0625000000000004
Ca4Zn51,0.0
Ca4ZnAg3,0.0
Ca4ZnCo(Si2O7)2,3.2147
Ca4ZnFe3(SiO3)8,3.1671
Ca4Zr3TaO12,0.0
Ca4ZrN4,1.2351999999999999
Ca4ZrTi3(GeO5)4,2.8582
Ca4ZrTi3(SiO5)4,2.9380999999999995
Ca4ZrTi3(SiO5)4,3.0056
Ca5(AgN2)2,0.5425
Ca5(AlBi3)2,0.0
Ca5(AlSb3)2,0.15559999999999974
Ca5(AuN2)2,0.4632999999999998
Ca5(BN2)3,0.0
Ca5(CoN2)2,0.0
Ca5(CoN3)2,0.0
Ca5(CrN3)2,0.7837000000000001
Ca5(CuN2)2,0.31389999999999985
Ca5(CuO2)6,0.0
Ca5(FeN2)2,0.0
Ca5(Ga3O7)2,3.0724
Ca5(GaAs3)2,0.2585000000000002
Ca5(GaN2)2,0.0
Ca5(GaSb3)2,0.0
Ca5(GeN3)2,1.9765999999999995
Ca5(GeO5)2,0.0
Ca5(GePd)6,0.0
Ca5(IO6)2,2.5412999999999997
Ca5(InSb3)2,0.15620000000000012
Ca5(IrN3)2,0.0
Ca5(MnN3)2,0.0
Ca5(OsN2)2,0.0
Ca5(OsN3)2,0.0
Ca5(PO4)3,0.0
Ca5(PPd)6,0.0
Ca5(ReN3)2,0.5209999999999999
Ca5(ReO6)2,2.1161000000000003
Ca5(RhN3)2,0.0
Ca5(RuN3)2,0.0
Ca5(Si2Au3)2,0.0
Ca5(SiN3)2,2.4601999999999995
Ca5(SiN3)2,2.1605
Ca5(SiO3)6,0.0
Ca5(SiO5)2,0.5149
Ca5(SnAs3)2,0.24209999999999976
Ca5(SnN3)2,1.2693999999999996
Ca5(TiN3)2,1.7929
Ca5(TiS2)8,0.0
Ca51W12N56O3,1.7094
Ca5Ag3,0.0
Ca5Al11TlSi13O48,2.5947
Ca5Al11TlSi13O48,0.45530000000000004
Ca5Al12Si12(AgO24)2,2.194
Ca5Al2(SiN4)2,2.7947999999999995
Ca5Al6O14,4.226
Ca5As3,0.0
Ca5As3ClO12,3.5157
Ca5As3HO13,3.9055
Ca5As3O12F,3.9518000000000004
Ca5As4(HO2)10,3.8236
Ca5Au2,0.0
Ca5Au3,0.0
Ca5Au4,0.0
Ca5B3O9F,4.236800000000001
Ca5BC4Cl3,0.8796999999999997
Ca5BC4Cl3,0.7345999999999999
Ca5Bi3,0.0
Ca5Bi6(Cl3O2)4,3.1134999999999993
Ca5CdCu2,0.0
Ca5CdN4,0.6227
Ca5Co3(SiO4)4,2.7029999999999994
Ca5Cr3ClO12,0.9861
Ca5Cr3O12,0.02909999999999968
Ca5Cr3O13,0.31210000000000004
Ca5Cu19As10,0.0
Ca5Cu2(IrO6)2,0.0
Ca5Cu2(RhO6)2,0.0
Ca5CuPb3,0.0
Ca5Dy3Ti5Mn3O24,0.23550000000000004
Ca5DyTi5Fe(SiO5)6,2.3237999999999994
Ca5Fe4(As3Pt)3,0.0
Ca5Ga3,0.0
Ca5Gd3Ti5Mn3O24,0.0019000000000000128
Ca5Ge3,0.0
Ca5Ge3H,0.0
Ca5Ge3O11,3.3456
Ca5Hg3,0.0
Ca5Ho3Ti5Mn3O24,0.5537000000000001
Ca5Ir,0.0
Ca5La10Mn14(NiO24)2,0.0
Ca5La7Mn7Ru5O36,0.0
Ca5Mg,0.0
Ca5Mg5P5O21F4,0.8222
Ca5MgN4,1.0404999999999998
Ca5Mn2(NiO6)2,0.0
Ca5Mn4O9,2.1137999999999995
Ca5Mn8O13,0.6032000000000002
Ca5MnO6,2.9678
Ca5MnPb3,0.0
Ca5MnSi9(Pb3O11)3,2.8158
Ca5Nb4(CoO9)2,1.5737
Ca5Nb5O17,0.0
Ca5NbN5,0.7167000000000003
Ca5Nd5Mn9CrO30,0.0
Ca5Ni15B4,0.0
Ca5Ni17Ge8,0.0
Ca5Ni9As7,0.0
Ca5Ni9P7,0.0
Ca5NiN4,0.6082999999999998
Ca5P12Ir19,0.0
Ca5P12Rh19,0.0
Ca5P3ClO12,5.3781
Ca5P3ClO12,5.2995
Ca5P3ClO12,5.6421
Ca5P3H,0.6829000000000001
Ca5P3HO13,5.1992
Ca5P3HO13,5.145700000000001
Ca5P3O12F,5.5277
Ca5P3O12F,5.5148
Ca5P3O13,0.48850000000000016
Ca5P3O13,0.3917999999999999
Ca5P3O13,0.3742000000000001
Ca5P8,1.1418000000000004
Ca5Pb3,0.0
Ca5Pd2,0.0
Ca5Pt2,0.0
Ca5Pt3,0.0
Ca5Rh,0.0
Ca5Sb3,0.0
Ca5Sc2(CoO6)2,1.4346
Ca5Sc2(CoO6)2,0.6536
Ca5Sc2(CoO6)2,0.32689999999999975
Ca5Si(PO6)2,4.7968
Ca5Si2C2O13,4.7858
Ca5Si2CO11,4.4954
Ca5Si2SO12,4.4382
Ca5Si3,0.0
Ca5Si3O13,0.0
Ca5Sn3,0.0
Ca5Sn3H,0.0
Ca5Sn3S11,1.9316000000000004
Ca5Ta4O15,2.9774
Ca5Ta4O15,3.2814
Ca5TaTi3Al(SiO5)5,2.8624
Ca5Te3O14,1.6785
Ca5ThF14,4.84
Ca5Ti3NbAl(SiO5)5,2.9144000000000005
Ca5TiSn4(BO3)10,3.0919999999999996
Ca5V3ClO12,3.7998
Ca5V3O12,0.0
Ca5V3O12F,3.8685000000000005
Ca5V3O13,0.5986999999999999
Ca5V3O13,0.3751
Ca5VN5,1.7935999999999996
Ca5W(N2O)2,2.0894000000000004
Ca5W3O14,2.3675
Ca5Y3Ti5Mn3O24,0.2351000000000001
Ca5Y7Al16Cr2(SiO24)2,0.08139999999999992
Ca5Zn3,0.0
Ca5ZnN4,0.8740000000000001
Ca5Zr3F22,5.3031
Ca5Zr4Ti(GeO5)5,3.1128
Ca65Ga24Sn19,0.1431
Ca6Ag16N,0.0
Ca6Ag3Ge5,0.0
Ca6Al2Fe4O15,0.7553000000000001
Ca6Al2NF,0.0
Ca6Al3(Si4N9)2,0.05510000000000037