formula,band_gap
La4Ga2O9,3.7455
La4Ga3FeO12,2.529000000000001
La4Ga3FeO12,2.785800000000001
La4GaSi3,0.0
La4GdSc15(BO3)20,2.1905
La4Ge7,0.0
La4GeO8,3.8436999999999992
La4H9,0.0
La4HoC10,0.0
La4In21Pd10,0.0
La4In5S13,0.0
La4InSbS9,2.2196
La4Mg,0.0
La4Mg(MoO6)2,1.6868999999999996
La4Mg3Ag10,0.0
La4MgCo,0.0
La4MgCoO8,1.0101999999999993
La4MgCr2O12,1.6334999999999997
La4MgCr2O12,1.0422000000000002
La4MgCr3O12,1.0735000000000001
La4MgFeO8,1.0145
La4MgGa2(FeO6)2,2.7330000000000005
La4MgGa2(FeO6)2,2.7512
La4MgGa2(FeO6)2,2.4268
La4MgGa2(FeO6)2,2.3173000000000004
La4MgGa2(FeO6)2,2.5975
La4MgIr,0.0
La4MgMnO8,0.11310000000000109
La4MgNi,0.0
La4MgNiO8,1.5546999999999995
La4MgRh,0.0
La4MgRu,0.0
La4MgTi3O12,0.0
La4Mn(Cu3S5)2,1.0386999999999995
La4Mn(NiO4)3,0.16490000000000027
La4Mn3NiO12,0.09280000000000044
La4Mn3Sb8,0.0
La4Mn4O11,0.0
La4Mn5(Si2O11)2,1.0118
La4MnO8,1.3675999999999995
La4MnO8,1.0244
La4MnS6O,2.083000000000001
La4MnS6O,1.9661
La4MnSe6O,0.0
La4Mo2O11,0.3353999999999999
La4Mo7O27,2.8306000000000004
La4Nd4S4O7,0.4551999999999996
La4Ni3MoO12,0.0
La4Ni3O10,0.0
La4Ni3Pb4,0.0
La4Ni3Sn8,0.0
La4Ni3WO12,0.0
La4NiO8,0.7965
La4NiS7,0.0
La4Os6O19,0.0
La4P9Rh8,0.0
La4PClO8,4.295099999999999
La4Pb3,0.0
La4PdO7,0.45230000000000015
La4Pr(CoP)10,0.0
La4PtO7,0.9892000000000003
La4Re(NiO4)3,0.0
La4Re6O19,0.0
La4Rh3,0.0
La4Ru6O19,0.0
La4S3N2,1.1943000000000001
La4S3NCl3,2.9165
La4S4Cl2O,2.7466
La4S7,0.0
La4Sb2Pb,0.0
La4Sb3,0.0
La4SbTe7,0.0
La4Se3N2,1.6576999999999993
La4Se3O4,1.3261000000000003
La4Se7S,0.15809999999999924
La4Si2S3O7,2.4924
La4Si2Se3O7,2.2305
La4Si4I3,0.0
La4SiI5,0.0
La4Sm4Co7AgO20,0.0
La4Sm4Co7AgO24,0.0
La4Sm4Co7CuO20,0.0
La4Sm4Co7CuO24,0.0
La4Sm4Ni7AgO20,0.0
La4SnBi2,0.0
La4SnSb2,0.0
La4TaCo33,0.0
La4Te3N2,0.8803000000000001
La4Ti2Se5O4,0.0
La4Ti3(SO2)4,0.6467
La4Ti3O12,2.918399999999999
La4Ti3O12,1.8730000000000002
La4Ti5(S6O)2,0.0
La4Ti5(Si2O11)2,0.0
La4Ti5(TeO8)3,1.5890000000000004
La4Ti9(Si2O15)2,0.0
La4Ti9O24,2.8512000000000004
La4TiMn5(PbO9)2,0.0
La4V5(Si2O11)2,0.35579999999999945
La4YC10,0.0
La4Zn3O9,1.7738000000000005
La4ZnCu(RhO6)2,0.0
La4ZnCu2MoO12,0.35999999999999943
La4Zr8Ni15As16,0.0
La5(AlBr)4,0.0
La5(BN3)2,0.0
La5(Mo2O7)3,1.0219000000000005
La5(MoO4)4,0.0
La5(SiN3)3,1.9651999999999994
La5(Sn5Ir2)2,0.0
La5AgPb3,0.0
La5AgS8,1.5947000000000005
La5AgSe8,1.4229000000000003
La5Al15Cu2Au3,0.0
La5Al15Cu4Au,0.0
La5Al2Ru3,0.00590000000000046
La5Al3Ni2,0.0
La5AlSi2O13,4.157800000000001
La5AsPb3,0.0
La5B3O13,0.0
La5B4N9,1.3068
La5B4Rh15,0.0
La5BPb3,0.0
La5Bi3,0.0
La5Bi3Br,0.0
La5C2Br9,1.7523999999999997
La5C2Cl9,1.6330999999999998
La5C2I9,1.4393000000000002
La5C2I9,1.4151999999999996
La5CoGe3,0.0
La5CoPb3,0.0
La5CoRe3O16,0.018500000000000405
La5CrPb3,0.0
La5Cu19P12,0.0
La5Cu4As4(ClO2)2,0.41550000000000065
La5Cu4P4(ClO2)2,0.0
La5Cu5O13,0.0
La5Cu6S7O4,1.7699999999999996
La5CuBi3,0.0
La5CuGe3,0.0
La5CuPb3,0.0
La5Dy3(CuO4)4,0.0
La5Er5Ge6,0.0
La5Fe4NiO15,0.0
La5FeGe3,0.0
La5FePb3,0.0
La5FeRe3O16,0.0
La5Ga3,0.0
La5Ga4SnSb10,0.20369999999999955
La5Ge3,0.0
La5Ge3O,0.0
La5In11Ni6,0.0
La5In3Br,0.0
La5Ir2,0.0
La5Ir3,0.0
La5Mg,0.0
La5Mg2Mn3O15,0.7944999999999993
La5Mg41,0.0
La5MgCu4P4(ClO2)2,0.0
La5MgRe3O16,0.09419999999999984
La5Mn5O16,0.0
La5MnOs3O16,0.0
La5MnPb3,0.0
La5MnRe3O16,0.0
La5NiGe3,0.0
La5NiPb3,0.0
La5P12Ir19,0.0
La5P12Ru19,0.0
La5PPb3,0.0
La5Pb3,0.0
La5Pb3C,0.0
La5Pb3Cl,0.0
La5Pb3I,0.0
La5Pb3O,0.0
La5Pb3S,0.0
La5Pb3Se,0.0
La5Pb4,0.0
La5Re3NiO16,0.0
La5Rh4,0.0
La5Ru2,0.0
La5RuPb3,0.0
La5S4NO2,1.3742999999999999
La5S8,0.0
La5Sb3,0.0
La5Sb3Br,0.0
La5Sb4(O4F)3,3.3074
La5SbPb3,0.0
La5Se6N,1.5880999999999998
La5Si2BO13,4.153599999999999
La5Si3,0.0
La5Si3O13,0.0
La5Si4,0.0
La5Si5I3,0.0
La5Sm3Co7CuO24,0.0
La5Sm3Cr6(FeO12)2,1.9061000000000003
La5Sm3Cr7FeO24,2.1331999999999995
La5Sm3Cr8O24,2.0817000000000005
La5Sm3Ni7AgO20,0.0
La5Sm3Ni7AgO24,0.0
La5Sm3V2Cr6O24,0.9265000000000008
La5Sm3VCr7O24,1.2457999999999991
La5SmS8,0.0
La5Sn3,0.0
La5Sn3Br,0.0
La5Sn3C,0.0
La5Sn3Cl,0.0
La5Sn3I,0.0
La5Sn4,0.0
La5Ta22O62,0.0
La5Ti2AgS5O7,1.5128000000000004
La5Ti2CuS5O7,1.2107
La5Ti4FeO17,1.4488000000000003
La5Ti4GaO17,2.4092000000000002
La5Ti4O15,0.0
La5Ti5O17,0.0
La5Ti6S3(ClO5)3,1.7769000000000004
La5Ti6S3(ClO5)3,1.7618999999999998
La5Tl3,0.0
La5TlS8,1.3953999999999995
La5TlSe8,1.3003999999999998
La5TlTe8,1.0812999999999997
La5V3S6O7,1.0339
La5ZnPb3,0.0
La6Al3Fe10As,0.0
La6Al3Fe11,0.0
La6Al3Ni4SnRu,0.0
La6Al4Fe9As,0.0
La6Al4Fe9P,0.0
La6Al5Fe9,0.0
La6AlFe13,0.0
La6B(NO2)3,1.0926
La6Cd(SiS7)2,1.9468999999999994
La6Co(SiS7)2,0.0
La6Co13Bi,0.0
La6Co13Pb,0.0
La6Co13Sb,0.0
La6Co13Sn,0.0
La6CoCl11,0.6316999999999995
La6Cr(GeS7)2,0.0
La6Cr(SiS7)2,0.0
La6Cu6O17,0.0
La6CuSb15,0.0
La6Fe(SiS7)2,0.13279999999999959
La6Fe13Pb,0.0
La6Fe13Sn,0.0
La6Ga3Co11,0.0
La6Ge11,0.0
La6InCo13,0.0
La6Mg(GeS7)2,2.0085999999999995
La6Mg(SiS7)2,1.9699
La6Mg22Al,0.0
La6Mg23C,0.0
La6Mg23P,0.0
La6Mg23Sb,0.0
La6Mg23Si,0.0
La6MgWO12,2.752300000000001
La6MgWO12,2.0915999999999997
La6Mn(SiS7)2,1.1259000000000006
La6Mn5O18,0.0
La6Mn9Al5,0.0
La6MnSb15,0.0
La6Mo8O33,3.2255000000000003
La6NbGa11O28,3.1489000000000003
La6NbGa11O28,3.2766
La6NbGa11O28,2.7175999999999996
La6Ni20As13,0.0
La6Ni6P17,0.0
La6OsI10,0.08790000000000031
La6P17Pd6,0.0
La6S3(OF4)2,2.6035000000000004
La6S4BrN3,1.4091000000000005
La6S4N3Cl,1.2603999999999997
La6Sb4(SO4)3,1.9578999999999995
La6Si2NiS14,0.9031000000000002
La6Si3Ni2,0.0
La6Si7Br3,0.0
La6Sm2Co7AgO20,0.0
La6Sm2Co7AgO24,0.0
La6Sm2Cr3(FeO4)5,0.9889000000000001
La6Sm2Cr3Fe5O24,0.8646000000000003
La6Sm2Cr5(FeO8)3,1.5518
La6Sm2V3Cr5O24,0.9662999999999995
La6Sm2V5Cr3O24,0.9385000000000003
La6TaGa11O28,3.4712999999999994
La6TaGa11O28,3.5288000000000004
La6Ti2S8O5,1.3379000000000003
La6Ti3Se9O5,0.0
La6TlCo13,0.0
La6UO12,1.9728000000000003
La6WO12,3.2131999999999996
La6Zn(SiS7)2,1.9847000000000001
La6Zn4Pd13,0.0
La6ZnCu,0.0
La6ZnSb15,0.0
La6Zr8F47,0.0
La7(FeO8)2,0.0
La7(RuO6)3,0.4051999999999998
La7BP2O17,4.4099
La7C3I10,0.0
La7CoI12,0.0
La7Cr2BO17,1.2771000000000008
La7Ir3,0.0
La7Mo7O30,1.1666000000000007
La7Nb3(W2O15)2,3.2924
La7Ni16,0.0
La7Ni3,0.0
La7Os4C9,0.0
La7P12Pd17,0.0
La7Pd3,0.0
La7Pt3,0.0
La7Rh3,0.0
La7Ru3,0.04459999999999997
La7Sb11Br4,0.014199999999999768
La7ScAl8O24,2.5344999999999995
La7Sm(FeO3)8,0.8335999999999997
La7SmCo5(CuO8)3,0.0
La7SmCo6(AgO10)2,0.0
La7SmCo6(AgO12)2,0.0
La7SmCo6(CuO12)2,0.0
La7SmCr2(Fe3O10)2,0.8217999999999996
La7SmCr2(FeO4)6,0.8693
La7SmCrFe7O20,0.8537999999999997
La7SmCrFe7O24,0.8649000000000004
La7SmMn2(Fe3O10)2,1.0325999999999995
La7SmMn2(FeO4)6,0.0
La7SmMn3(FeO4)5,1.0196999999999994
La7SmMn3Fe5O24,0.0
La7SmMn4(FeO5)4,0.9926000000000004
La7SmMn5Fe3O20,0.4192
La7SmMn6(FeO10)2,0.14200000000000035
La7SmMn7CuO20,0.0
La7SmMn7FeO20,0.001300000000000523
La7SmMn8O20,0.036399999999999544
La7SmMnFe7O20,0.8737000000000004
La7SmMnFe7O24,0.0
La7SmNi6(AgO12)2,0.0
La7SmTi2V6O24,0.0
La7SmTi3V5O24,0.0
La7SmTiV7O24,0.0
La7SmV7CrO24,0.9668999999999999
La7SmV8O24,0.0
La7Ta3(W2O15)2,3.5412000000000003
La7Ti27Al5(CuO4)24,0.0
La7V2BO17,2.8406000000000002
La7YAl8O24,3.6350999999999996
La7ZnNi2,0.0
La8(BiPb)3,0.0
La8(BiSb)3,0.0
La8Al4I7,0.0
La8Al7BO24,3.5096
La8Al7GaO24,3.458
La8Al7InO24,3.3008000000000006
Li2AgSn,0.0
Li2AgSn2,0.0
Li2Al,0.0
Li2Al(BO2)5,5.6317
Li2Al(NiO2)3,0.0
Li2Al(NiO2)3,0.3918999999999997
Li2Al2CrSbO8,2.5534
Li2Al2FeO6,0.03810000000000002
Li2Al2FeO6,0.0
Li2Al2P2O9F,0.3527
Li2Al2Si4HO14,0.7394000000000001
Li2Al2Si4HO14,0.4934
Li2Al2Si4O13,0.3016
Li2Al2SiO6,4.625900000000001
Li2AlAg,0.0
Li2AlB5(H19N3)2,6.049300000000001
Li2AlBO4,4.864
Li2AlCoO4,1.7803
Li2AlCoO4,0.7431000000000005
Li2AlCoO4,0.0
Li2AlCoO4,0.030400000000000205
Li2AlCoO4,1.5069000000000001
Li2AlCoO4,1.2916999999999998
Li2AlCoO4,1.7210999999999999
Li2AlCoO4,1.6962000000000002
Li2AlCoO4,1.2949000000000002
Li2AlCoO4,1.5131999999999999
Li2AlCoO4,1.2978000000000003
Li2AlCoO4,0.43110000000000026
Li2AlCr2SbO8,2.1334000000000004
Li2AlCr2SbO8,2.0373
Li2AlFeO4,3.1653000000000002
Li2AlFeO4,2.6794
Li2AlFeO4,3.1189999999999998
Li2AlFeO4,2.6785
Li2AlFeO4,2.6622
Li2AlFeO4,2.1325000000000003
Li2AlFeO4,2.9377
Li2AlFeO4,2.6668
Li2AlFeO4,2.1424000000000003
Li2AlFeO4,3.0507
Li2AlFeO4,2.9465999999999997
Li2AlFeO4,1.8799000000000001
Li2AlFeO4,2.9257
Li2AlGa,0.0
Li2AlGaSi2(H2O5)2,4.349
Li2AlNiO4,1.5322
Li2AlNiO4,0.9183999999999999
Li2AlNiO4,1.5284
Li2AlNiO4,1.5252000000000001
Li2AlNiO4,1.2242
Li2AlPCO7,5.361400000000001
Li2AlPd,0.0
Li2AlPt,0.0
Li2AlRh,0.0
Li2AlSi,0.0
Li2AlVO4,2.1378999999999997
Li2AlVO4,1.3213999999999997
Li2AlVO4,1.9247999999999998
Li2AlVO4,2.1881
Li2AlVO4,2.1357999999999997
Li2AlVO4,1.9215000000000004
Li2AlVO4,2.5023999999999997
Li2AsPCO7,4.265
Li2B12H26O7,5.2083
Li2B12H33N7,4.5949
Li2B2H9N,4.6523
Li2B2Rh3,0.0
Li2B2S5,2.4427000000000003
Li2B2Se5,1.7046999999999999
Li2B3H14N,6.3948
Li2B3O4F3,6.573499999999999
Li2B3PO8,5.4366
Li2B4H4O9,5.1171999999999995
Li2B4O7,5.668
Li2B5SbO10,3.3989999999999996
Li2B6O9F2,6.2705
Li2B8SeO15,4.8776
Li2BF5,7.5703000000000005
Li2BH6N,4.2075
Li2BPCO7,5.3729
Li2BPd3,0.0
Li2BPt3,0.0
Li2BSbO4,1.6851999999999996
Li2BSeO4,2.0982
Li2Be2H4NF7,6.791
Li2BeCl4,6.2915
Li2BeF4,7.722300000000001
Li2BeH4,4.5911
Li2BeSiO4,5.7741
Li2BeSiO4,6.046099999999999
Li2Bi(BO2)5,3.3903999999999996
Li2Bi(BO3)2,0.0
Li2Bi(PO3)5,4.2985999999999995
Li2Bi(PO4)2,0.16720000000000002
Li2Bi2(SO4)3,1.8644000000000003
Li2Bi2B2O7,3.1397
Li2Bi2B2O7,2.696
Li2Bi2P2O9,3.3073
Li2Bi3P9O28,3.9590999999999994
Li2Bi5B3O13,2.0835999999999997
Li2BiAsCO7,3.367
Li2BiAu,0.0
Li2BiBO4,2.3079
Li2BiBO4,1.9028999999999998
Li2BiBO4,2.3147
Li2BiBO5,0.0
Li2BiF5,4.0571
Li2BiO2,0.0
Li2BiO3,0.0
Li2BiO3,1.0347
Li2BiO3,1.0351
Li2BiP3O10,2.5981
Li2BiPCO7,3.6529
Li2BiPCO7,3.7498999999999993
Li2BiS2,0.0
Li2BiS3,0.8880999999999997
Li2BrO,0.028900000000000037
Li2CN2,3.7395
Li2CO3,5.0573999999999995
Li2CO3,3.7449000000000003
Li2Ca,0.0
Li2Ca(MnN)2,0.0
Li2Ca(SiN2)2,3.4657999999999998
Li2Ca2Si2O7,4.7378
Li2Ca2Si5O13,4.7981
Li2Ca2Ta3O10,0.0
Li2Ca3Be3Si3(O6F)2,5.843100000000001
Li2Ca3N6,0.0
Li2Ca4Si4O13,4.456
Li2Ca5N4,0.0
Li2CaAl,0.0
Li2CaGe,0.1008
Li2CaGeO4,4.1135
Li2CaHfF8,6.9952000000000005
Li2CaIn,0.0
Li2CaPb,0.0
Li2CaSi,0.0
Li2CaSiO4,5.189699999999999
Li2CaSn,0.0
Li2CaTa2O7,2.4847
Li2CaTa2O7,2.8142
Li2CaTa2O7,2.1401
Li2CaTl,0.0
Li2CaV12O32,1.7944
Li2Cd,0.0
Li2Cd(PO3)4,4.5942
Li2CdAg,0.0
Li2CdAu,0.0
Li2CdBi,0.0
Li2CdCl4,3.6296999999999997
Li2CdGe,0.0
Li2CdGeO4,2.455
Li2CdGeS4,2.2472
Li2CdHg,0.0
Li2CdIn,0.0
Li2CdPb,0.0
Li2CdPd,0.0
Li2CdPt,0.0
Li2CdSb,0.0
Li2CdSiO4,2.8338
Li2CdSn,0.0
Li2CdSnS4,1.9513
Li2Ce2Ge3,0.0
Li2Ce2Si3,0.0
Li2Ce5Sn7,0.0
Li2CeAl,0.0
Li2CeAs2,0.6880999999999999
Li2CeGa,0.0
Li2CeGe,0.0
Li2CeIn,0.0
Li2CeN2,1.2035999999999998
Li2CeO3,2.176
Li2CeO3,1.9756999999999998
Li2CeP2,0.8280999999999996
Li2CePb,0.0
Li2CePr(MoO4)4,0.12099999999999955
Li2CeSb2,0.0
Li2CeSm(MoO4)4,0.13949999999999996
Li2CeSn,0.0
Li2CeTl,0.0
Li2Co(CO3)2,2.9459999999999997
Li2Co(CO3)2,3.0592
Li2Co(CO3)2,2.7698
Li2Co(CO3)2,2.815
Li2Co(CO3)2,1.7435
Li2Co(CO3)2,2.6334
Li2Co(CO3)2,1.7619
Li2Co(CO3)2,2.2671
Li2Co(CO3)2,2.0957000000000003
Li2Co(CO3)2,2.2155
Li2Co(CO3)2,1.9962
Li2Co(CO3)2,2.4383
Li2Co(NiO3)2,0.0
Li2Co(PO3)4,2.9976000000000003
Li2Co(PO3)4,2.7707
Li2Co(PO3)4,2.8594999999999997
Li2Co(PO3)4,2.9246999999999996
Li2Co(PO3)5,0.8796999999999999
Li2Co(PO4)2,0.0
Li2Co(SO4)2,3.2144000000000004
Li2Co(SO4)2,2.9451
Li2Co(Si2O5)2,3.3703999999999996
Li2Co(Si2O5)2,4.2573
Li2Co(Si2O5)2,2.1769
Li2Co(Si2O5)2,3.2401
Li2Co(Si2O5)2,2.8011000000000004
Li2Co(SiO3)2,2.8033999999999994
Li2Co(SiO3)2,2.8871
Li2Co(SiO3)2,2.9687999999999994
Li2Co(SiO3)2,0.8506
Li2Co(WO4)2,2.6607
Li2Co12P7,0.0
Li2Co2(CO3)3,2.2431
Li2Co2(SO4)3,2.7744
Li2Co2(SO4)3,2.4043
Li2Co2(SO4)3,2.8014
Li2Co2(SiO3)3,0.47940000000000005
Li2Co2(SiO3)3,2.3804000000000003
Li2Co2(SiO3)3,2.6035000000000004
Li2Co2C2O7,1.7858
Li2Co2H24C6(N4O5)3,1.2679999999999998
Li2Co2NiO6,0.0
Li2Co2OF6,0.6906999999999999
Li2Co2OF6,1.1378
Li2Co2P2O9,0.8091000000000002
Li2Co2P2O9,1.0645
Li2Co2Si2O7,2.3439
Li2Co2Si2O7,2.6226000000000003
Li2Co2Si2O7,2.6228999999999996
Li2Co2SiO6,0.44989999999999997
Li2Co2SnO6,0.4552999999999998
Li2Co3(P2O7)2,2.9025999999999996
Li2Co3(P2O7)2,2.8175999999999997
Li2Co3(P2O7)2,2.4546999999999994
Li2Co3(SeO3)4,2.6422
Li2Co3(SiO4)2,2.2312000000000003
Li2Co3BiO8,1.1113
Li2Co3NiO8,0.0
Li2Co3NiO8,0.6307999999999998
Li2Co3OF6,1.6904
Li2Co3SbO8,0.45169999999999977
Li2Co3SbO8,0.22740000000000027
Li2Co3SbO8,0.0
Li2Co3SnO8,0.22740000000000005
Li2Co3SnO8,0.0
Li2Co3TeO8,0.0
Li2Co3TeO8,0.4554
Li2Co3WO8,0.22959999999999958
Li2Co4O3F8,0.13839999999999997
Li2Co4O7F,0.0
Li2Co4OF8,2.5456
Li2Co4OF8,0.011900000000000022
Li2Co4OF8,2.2384
Li2CoBO4,1.4304000000000001
Li2CoBO4,0.6621000000000001
Li2CoBO4,1.0979999999999999
Li2CoBO4,1.0322
Li2CoBO4,1.1027999999999998
Li2CoBO4,1.1026
Li2CoCO4,2.5618999999999996
Li2CoCSO7,2.8551
Li2CoCSO7,2.8183
Li2CoCSO7,2.4992
Li2CoCl4,0.0
Li2CoCl4,0.07899999999999996
Li2CoCl4,0.011200000000000099
Li2CoCu(PO4)2,0.0
Li2CoCuO4,0.0
Li2CoCuO4,0.040300000000000225
Li2CoGe3O8,2.4709
Li2CoGeO4,2.2966999999999995
Li2CoGeO4,2.6323
Li2CoH12(SO7)2,3.3284000000000002
Li2CoH8(CO5)2,3.0362
Li2CoH8(CO5)2,2.9158000000000004
Li2CoH8(SO6)2,3.2881
Li2CoN2,0.0
Li2CoNi(PO4)2,2.0977
Li2CoNi3O8,0.0
Li2CoNi3O8,0.0618000000000003
Li2CoNi3O8,0.03139999999999965
Li2CoNi3O8,0.0009999999999998899
Li2CoNiO4,0.0
Li2CoNiO4,0.5021
Li2CoO2,2.3336
Li2CoO2,0.48819999999999997
Li2CoO2,2.5492
Li2CoO2F,0.47619999999999996
Li2CoO3,0.0
Li2CoO3,0.1602999999999999
Li2CoO3,0.18310000000000004
Li2CoO3,0.23450000000000015
Li2CoO3,0.4204999999999999
Li2CoO3,0.46030000000000015
Li2CoO3,0.02619999999999978
Li2CoO3,0.30840000000000023
Li2CoO3,0.7738
Li2CoO3,0.8901
Li2CoO3,0.8906000000000001
Li2CoOF2,0.1825000000000001
Li2CoOF3,0.3345
Li2CoOF3,1.0344
Li2CoOF3,0.6847
Li2CoOF3,0.9122
Li2CoOF3,1.3740999999999999
Li2CoP2O7,3.2056999999999998
Li2CoP2O7,0.06510000000000016
Li2CoP2O7,3.1138000000000003
Li2CoP2O7,2.9241
Li2CoP2O7,2.6793
Li2CoP2O7,3.2493999999999996
Li2CoP2O7,2.8447000000000005
Li2CoP2O7,2.8244999999999996
Li2CoP2O7,3.2598000000000003
Li2CoP2O7,3.0107999999999997
Li2CoP2O7,3.2618
Li2CoP2O7,2.6158000000000006
Li2CoP2O7,3.3133
Li2CoP2O7,2.6292
Li2CoP2O7,2.5356
Li2CoP2O7,2.817
Li2CoP2O7,2.1638
Li2CoP2O7,2.3733000000000004
Li2CoP2O7,2.2452
Li2CoP2O7,3.0494
Li2CoP2O7,2.9811000000000005
Li2CoPCO7,0.7795999999999998
Li2CoPHO5,2.84
Li2CoPHO5,2.8023999999999996
Li2CoPO4F,2.8292
Li2CoPO4F,2.6473000000000004
Li2CoPO4F,2.6148000000000002
Li2CoSi3O8,3.3331999999999997
Li2CoSi3O8,3.1591
Li2CoSiO4,3.083
Li2CoSiO4,0.43310000000000004
Li2CoSiO4,2.1948
Li2CoSiO4,2.6410000000000005
Li2CoSiO4,2.4169
Li2CoSiO4,2.3923000000000005
Li2CoSiO4,2.6208
Li2CoSiO4,2.4181000000000004
Li2CoSiO4,2.7693000000000003
Li2CoSiO4,2.9336
Li2CoSiO4,2.3830999999999998
Li2CoSiO4,2.6218000000000004
Li2CoSiO4,2.3926999999999996
Li2CoSiO4,2.8296
Li2CoSiO4,2.6016000000000004
Li2CoSiO4,2.2653999999999996
Li2CoSiO4,2.7567
Li2CoSiO4,2.6264999999999996
Li2CoSn(PO4)2,2.2519
Li2CoSn(PO4)2,2.1936000000000004
Li2CoSn(PO4)2,0.5746000000000002
Li2CoSn(PO4)2,2.3415
Li2CoSn(PO4)2,2.3091
Li2CoSn(PO4)2,2.1937999999999995
Li2CoSn(PO4)2,1.3025000000000002
Li2CoSn3(PO4)6,0.0
Li2CoSnO4,1.0167000000000002
Li2CoSnO4,1.7113999999999994
Li2CoSnO4,1.7912999999999997
Li2Cr(BO2)5,1.9858000000000002
Li2Cr(CO3)2,2.8669000000000002
Li2Cr(CO3)2,3.0916000000000006
Li2Cr(CO3)3,0.019500000000000003
Li2Cr(CoO3)2,0.027000000000000135
Li2Cr(CoO3)2,0.7232000000000003
Li2Cr(CoO3)2,0.0
Li2Cr(FeO3)2,0.09089999999999998
Li2Cr(H2O3)2,3.052
Li2Cr(PO3)4,3.0103
Li2Cr(PO3)4,2.8225999999999996
Li2Cr(PO3)4,3.3655
Li2Cr(PO3)4,3.4608
Li2Cr(PO3)4,3.4909999999999997
Li2Cr(PO3)5,3.3963
Li2Cr(PO3)5,2.1797
Li2Cr(PO3)5,0.7893999999999999
Li2Cr(PO3)8,0.0
Li2Cr(PO4)2,0.0
Li2Cr(PO4)2,1.7776
Li2Cr(PO4)2,0.0363
Li2Cr(SO4)2,2.2485999999999997
Li2Cr(Si2O5)2,2.7249
Li2Cr(Si2O5)2,2.6140000000000003
Li2Cr(Si2O5)3,1.3383999999999998
Li2Cr(Si2O5)3,3.0716
Li2Cr(Si2O5)3,0.0
Li2Cr(Si2O5)3,1.0966
Li2Cr(SiO3)2,1.9896999999999996
Li2Cr(SiO3)2,2.4339
Li2Cr(SiO3)2,1.5998
Li2Cr2(PO4)3,0.0
Li2Cr2(PO4)3,2.4368999999999996
Li2Cr2(SO4)3,1.7921000000000005
Li2Cr2(SO4)3,2.2954
Li2Cr2(SO4)3,2.4379
Li2Cr2(Si2O5)3,2.8684000000000003
Li2Cr2CoO6,0.29269999999999996
Li2Cr2CoO6,0.6529000000000003
Li2Cr2CoO6,0.0
Li2Cr2FeO6,0.0
Li2Cr2FeSbO8,1.891
Li2Cr2FeSbO8,1.6540999999999997
Li2Cr2H4O9,0.10200000000000031
Li2Cr2H4O9,2.6469
Li2Cr2NiO6,0.0
Li2Cr2O7,2.3702
Li2Cr2O7,2.0307
Li2Cr2O7,2.378
Li2Cr2O7,2.4367
Li2Cr2O7,1.1502
Li2Cr2O7,2.2434
Li2Cr2O7,2.4046000000000003
Li2Cr2O7,2.4787
Li2Cr2O7,1.804
Li2Cr2O7,2.2418
Li2Cr2O7,1.1657
Li2Cr2O7,2.2577
Li2Cr2O7,2.2500999999999998
Li2Cr2O7,2.2531
Li2Cr2P2O7F2,1.7499000000000002
Li2Cr2P2O9,2.3611
Li2Cr2P4H3O16,0.0
Li2Cr2Si2O7,0.8804999999999996
Li2Cr2Si2O9,0.0
Li2Cr2Si4O11,2.5679000000000003
Li2Cr2Si5O13,2.5992999999999995
Li2Cr2SiO6,2.4783
Li2Cr2SnO6,3.1686
Li2Cr3(CO3)6,0.0
Li2Cr3(CoO4)3,0.0
Li2Cr3(CoO6)2,1.7890000000000001
Li2Cr3(FeO6)2,0.6282
Li2Cr3(NiO6)2,2.4624
Li2Cr3(P2O7)2,2.8762
Li2Cr3(P2O7)2,2.1845
Li2Cr3(P2O7)2,2.7561000000000004
Li2Cr3(SiO3)4,2.3455
Li2Cr3BiO8,0.0
Li2Cr3BiO8,0.4255
Li2Cr3CoO8,0.07220000000000004
Li2Cr3CoO8,0.23740000000000006
Li2Cr3CoO8,0.0
Li2Cr3CoO8,0.5895999999999999
Li2Cr3CoO8,0.6141000000000001
Li2Cr3FeO8,0.0
Li2Cr3FeO8,0.38260000000000005
Li2Cr3FeO8,0.013500000000000068
Li2Cr3FeO8,0.10189999999999966
Li2Cr3Ni(SO4)6,0.5190999999999999
Li2Cr3NiO8,0.9962000000000002
Li2Cr3NiO8,0.0
Li2Cr3NiO8,0.7109999999999999
Li2Cr3NiO8,0.7266999999999997
Li2Cr3NiO8,0.6016999999999997
Li2Cr3O10,1.8001
Li2Cr3O6,0.0
Li2Cr3O6,0.23520000000000008
Li2Cr3O6,0.4758
Li2Cr3P4(HO4)4,2.8400000000000003
Li2Cr3P5O18,0.0
Li2Cr3P9O28,2.6542999999999997
Li2Cr3SbO8,1.9744999999999995
Li2Cr3SbO8,1.9309000000000003
Li2Cr3SbO8,2.4842999999999997
Li2Cr3Si3O10,1.9813999999999998
Li2Cr3SnO8,0.7856999999999998
Li2Cr3SnO8,0.9602999999999997
Li2Cr3SnO8,0.0
Li2Cr3SnO8,0.20489999999999986
Li2Cr3SnO8,0.7014999999999998
Li2Cr3TeO8,0.0
Li2Cr3WO8,2.137
Li2Cr3WO8,2.3026
Li2Cr3WO8,1.8533999999999997
Li2Cr4O13,1.3426
Li2Cr4O13,1.5055
Li2Cr4O13,1.1429
Li2Cr4O13,1.3539000000000003
Li2Cr4O13,1.1184
Li2Cr4O13,1.1414
Li2Cr4P4O15,2.0709000000000004
Li2Cr4Si4O13,1.1021999999999998
Li2Cr5(PO4)4,2.5833999999999997
Li2Cr5(PO4)4,2.0272000000000006
Li2Cr5(Si2O5)6,1.6612
Li2Cr5(Si2O7)2,2.6538
Li2Cr5B3O13,1.2860999999999998
Li2Cr5O12,0.22850000000000004
Li2CrAsCO7,2.96
Li2CrCSO7,1.9799000000000002
Li2CrCl4,0.5017999999999998
Li2CrCl4,0.33020000000000005
Li2CrCl4,0.20750000000000002
Li2CrCo(PO4)2,0.6561999999999992
Li2CrCo3O8,0.5611000000000002
Li2CrCo3O8,0.13169999999999993
Li2CrCo3O8,0.0
Li2CrCoO4,0.665
Li2CrCoO4,0.010699999999999932
Li2CrCoO4,0.0
Li2CrCoO4,0.6296000000000004
Li2CrF4,1.6057000000000001
Li2CrF6,1.6887999999999999
Li2CrF6,1.2088999999999999
Li2CrFe(PO4)2,2.5057
Li2CrFe(PO4)2,2.2877
Li2CrFe3O8,0.0
Li2CrFeAs2,0.0
Li2CrFeO4,1.6024000000000003
Li2CrFeO4,1.4331
Li2CrFeO4,1.6730000000000005
Li2CrFeO4,1.6805999999999996
Li2CrFeO4,1.2734
Li2CrFeO4,1.7254999999999998
Li2CrFeO4,1.4044000000000003
Li2CrFeO4,1.7314999999999996
Li2CrFeO4,1.6726999999999999
Li2CrFeO4,1.6771999999999996
Li2CrFeO4,1.4074000000000004
Li2CrFeO4,1.6659000000000002
Li2CrH8Cl5O4,3.1859
Li2CrNi(PO4)2,1.7405
Li2CrNiO4,0.0
Li2CrO2,1.014
Li2CrO2,1.1213
Li2CrO2,1.6402999999999999
Li2CrO2,2.5092999999999996
Li2CrO2,0.9845999999999997
Li2CrO2,1.4981
Li2CrO2,1.4700000000000002
Li2CrO3,1.0792000000000002
Li2CrO3,0.7612000000000001
Li2CrO3,0.0
Li2CrO3,1.7417
Li2CrO3,1.1199999999999999
Li2CrO3,0.23260000000000014
Li2CrO3,0.23320000000000007
Li2CrO3,0.23229999999999995
Li2CrO4,2.6021
Li2CrO4,2.502
Li2CrO4,2.6673999999999998
Li2CrO4,2.6527
Li2CrO4,2.2168
Li2CrP2O7,3.4997
Li2CrP2O7,2.8274999999999997
Li2CrP2O7,3.2552000000000003
Li2CrP2O7,3.7041000000000004
Li2CrP2O7,3.4910000000000005
Li2CrP2O7,1.9725000000000001
Li2CrP2O7,3.1186
Li2CrP2O7,0.03300000000000036
Li2CrP2O7,2.3913
Li2CrP2O7,2.3926
Li2CrP3O10,2.6484
Li2CrP3O10,3.2399
Li2CrP4(H2O3)6,2.4080000000000004
Li2CrP4(H4O5)4,0.3256999999999999
Li2CrP4O13,0.12710000000000002
Li2CrPCO7,2.8785
Li2CrPCO7,2.6729
Li2CrPHO5,2.4368
Li2CrPO4F,2.0493
Li2CrPO4F,2.8005999999999998
Li2CrPO4F,2.0187
Li2CrPO4F,2.3471999999999995