formula,band_gap
BaHfO3,3.5394
BaHfS3,1.2523999999999997
BaHfS3,0.8588999999999998
BaHfS3,0.8438999999999997
BaHfS3,0.8664999999999998
BaHfTiInO6,0.0
BaHfZrSnO6,2.6096999999999997
BaHg,0.0
BaHg11,0.0
BaHg2,0.0
BaHg2(ClO)2,1.6109999999999998
BaHg2Bi,0.0
BaHg2Pb,0.0
BaHg3,0.0
BaHg6,0.0
BaHgAs2O7,1.4956
BaHgO2,2.2727
BaHgO2,2.1809
BaHgPb,0.0
BaHgRuO5,0.0
BaHgS2,1.1569
BaHo(CoO3)2,0.0
BaHo2CoO5,1.2706999999999997
BaHo2CuO5,0.0
BaHo2NiO5,2.1548999999999996
BaHo2O4,3.2256
BaHo2PdO5,1.9437999999999995
BaHo2ZnO5,3.0589
BaHo4Si5O17,4.7703999999999995
BaHoCo4O7,0.0
BaHoFe4O7,0.0
BaHoFe4O7,0.07889999999999997
BaI2,3.4525000000000006
BaI2,3.0488
BaIBr,3.5422999999999996
BaIF,4.0263
BaIn,0.0
BaIn(Cu3O4)2,0.0
BaIn2,0.0
BaIn2(P2O7)2,4.0047999999999995
BaIn2Ir,0.0
BaIn2O4,1.0905999999999998
BaIn2Pd,0.0
BaIn2Pt,0.0
BaIn2Rh,0.0
BaIn3Pt,0.0
BaIn4,0.0
BaIn4Ir,0.0
BaIn8Ni2O15,1.1979999999999995
BaIn9Ir2,0.0
BaInCo4O7,0.0
BaInCuF7,1.3409
BaInF5,4.7954
BaInFe4O7,0.0
BaInFeWO6,0.0
BaInGa,0.0
BaInGe,0.0
BaInO3,0.0
BaIrF6,0.0
BaIrO3,0.0
BaLa(BiS3)2,0.6691000000000003
BaLa(CoO3)2,0.0
BaLa(FeO3)2,0.0
BaLa(SbSe3)2,0.6452999999999998
BaLa2(CoO3)3,0.0
BaLa2(SiS4)2,2.7289000000000003
BaLa2BeO5,3.442
BaLa2Br8,3.1249000000000002
BaLa2Br8,3.4682
BaLa2Cl8,3.837
BaLa2Cl8,3.4599
BaLa2Cl8,3.8858
BaLa2CoS5,0.0
BaLa2Fe2O5F4,0.4773000000000005
BaLa2Fe2O7,0.0
BaLa2FeS5,0.0
BaLa2In2O7,2.4620000000000006
BaLa2Mn3O9,0.0
BaLa2MnS5,0.0
BaLa2O4,3.1295
BaLa2O4,2.683
BaLa2O4,3.7033000000000005
BaLa2O4,3.3569999999999998
BaLa2PdO5,2.3421000000000003
BaLa2PtO5,2.4067000000000007
BaLa2Sc2O7,3.6458
BaLa2Te5O14,3.2283
BaLa2Ti3O10,1.9924
BaLa2Ti3O10,2.0536000000000003
BaLa2Ti3O10,2.1038
BaLa2TiCr2O9,0.0
BaLa2WO7,3.3121
BaLa2WO7,3.3342
BaLa2ZnO5,3.1916
BaLa2ZnS5,1.4565000000000001
BaLa3,0.0
BaLa3(CoO3)4,0.0
BaLa3(NiO4)2,0.45650000000000013
BaLa3Mn4O10,0.6795999999999998
BaLa3Mn4O12,0.0
BaLa3Sc4HO12,3.804499999999999
BaLa3TiCr3O12,1.8742999999999999
BaLa3TiCr3O12,1.8926999999999996
BaLa4(CoO3)5,0.2804000000000002
BaLa4Cu5O12,0.0
BaLa4Mn5O15,0.0
BaLa4Ti4O15,2.6052
BaLa4Ti4O15,2.8881000000000006
BaLa4TiCr4O15,1.9094000000000007
BaLa4TiCr4O15,1.5538999999999996
BaLa4TiCr4O15,1.8815999999999997
BaLa5TiCr5O18,1.9947
BaLa7Mg5Nb3O24,2.902300000000001
BaLa7Mg5Nb3O24,3.0726000000000004
BaLa8Co(Si3O13)2,2.6382000000000003
BaLaAgSe3,1.6435
BaLaAgTe3,1.2931
BaLaAlO4,4.4355
BaLaB12,0.0
BaLaBr5,2.826
BaLaBr5,3.1517999999999997
BaLaBr5,2.7230000000000003
BaLaBr5,2.9001
BaLaCl5,4.1445
BaLaCl5,3.2795
BaLaCl5,3.785
BaLaCl5,3.8800999999999997
BaLaCl5,3.9281
BaLaCl5,3.9549999999999996
BaLaCl5,3.4008999999999996
BaLaCl5,3.2095
BaLaCl5,4.2537
BaLaCl5,3.5974
BaLaCl5,3.9892999999999996
BaLaCo2O5,0.0
BaLaCoIrO6,0.0
BaLaCoSbO6,0.0
BaLaCrMoO6,0.0
BaLaCuBO5,0.0
BaLaCuRuO6,0.0
BaLaCuS3,1.0948000000000002
BaLaCuSe3,1.2052999999999998
BaLaCuTe3,0.8131000000000004
BaLaEuSbO6,0.2517000000000005
BaLaEuSbO6,1.0398000000000005
BaLaEuZnO5,0.0
BaLaFeO4,0.7285999999999992
BaLaGa3O7,3.3009
BaLaGaO4,3.9478
BaLaI4,0.0
BaLaI5,2.0984
BaLaI5,2.3307
BaLaI5,2.2409
BaLaI5,2.5017
BaLaI5,2.1330999999999998
BaLaI5,2.6220999999999997
BaLaI5,2.5826000000000002
BaLaI5,2.4932
BaLaI5,2.4503000000000004
BaLaInO4,3.0545
BaLaMg(CoO3)2,0.0
BaLaMg14,0.0
BaLaMg6,0.0
BaLaMgBiO6,1.0829000000000004
BaLaMgMn2O6,0.0
BaLaMgNbO6,2.6557000000000004
BaLaMgRuO6,0.19810000000000016
BaLaMgTaO6,2.9425
BaLaMn2O6,0.0
BaLaMn2O6,0.9001999999999999
BaLaMnInO6,0.7082000000000006
BaLaMnInO6,0.0
BaLaMnMoO6,0.38239999999999963
BaLaMnRuO6,0.0
BaLaMnRuO6,0.32099999999999973
BaLaMnSbO6,1.5110999999999999
BaLaMnSnO6,0.0
BaLaNbCrO6,0.0
BaLaNdMn3O9,0.0
BaLaNiRuO6,0.0
BaLaPrMn3O9,0.0
BaLaSi2,0.0
BaLaSmCuO5,0.5899000000000001
BaLaSmMn3O9,0.0
BaLaTaMnO6,1.0025000000000004
BaLaTaZnO6,2.2668
BaLaTiCrO6,2.2522
BaLaTiCrO6,1.2249999999999996
BaLaTiCuO6,0.0
BaLaTiFeO6,1.7837999999999994
BaLaZnRuO6,0.38119999999999976
BaLaZnRuO6,0.4756
BaLi(B3O5)3,5.8511
BaLi(B3O5)3,5.7835
BaLi(B3O5)3,5.7965
BaLi(BS2)3,2.7298
BaLi2(MgGe)2,0.0
BaLi2(MgSi)2,0.0
BaLi2Mg(PO4)2,5.638199999999999
BaLi2MnV2O8,2.7197000000000005
BaLi2NiO3,2.2093
BaLi2NiO3,1.762
BaLi2P2O7,5.361800000000001
BaLi2Si,0.0
BaLi2SiO4,4.3896
BaLi2Ti6O14,2.8907999999999996
BaLi4,0.0
BaLi4NiO4,2.6892999999999994
BaLi4O3,3.4693000000000005
BaLi4O3,3.3975999999999997
BaLiAl3P2(HO7)2,3.1339999999999995
BaLiAl3P2(HO7)2,2.6483999999999996
BaLiAl3P2(HO7)2,3.0738000000000003
BaLiAlF6,7.3161000000000005
BaLiAs,0.5928
BaLiBO3,4.1341
BaLiBS3,2.1531
BaLiCaVP2O9,2.0006999999999997
BaLiCeSbO6,1.9094000000000002
BaLiCoF6,2.2721
BaLiCrF6,2.1413
BaLiF3,6.564299999999999
BaLiGd2(MoO4)4,0.039200000000000124
BaLiGe2,0.0
BaLiH3,2.2146
BaLiHfBiO6,1.1166
BaLiLaTeO6,2.9505999999999997
BaLiMg14,0.0
BaLiMg2AlSi3(O5F)2,4.3189
BaLiMg6,0.0
BaLiN,0.5322
BaLiNbBiO6,0.0
BaLiP,0.6981999999999999
BaLiP,0.9631000000000003
BaLiPrTeO6,3.1399
BaLiRu5O11,0.0
BaLiSb,0.6946999999999997
BaLiSi,0.0
BaLiSnBiO6,0.00010000000000021103
BaLiTbSbO6,0.0
BaLiTi2Bi2O,0.0
BaLiV2Ni3(HO5)2,1.2119999999999997
BaLiV2Ni3(HO5)2,1.5942000000000003
BaLiV2Ni3(HO5)2,0.0
BaLiYCu2O5,0.0
BaLiZr2F11,5.7451
BaLiZrBiO6,1.0751
BaLu2CoO5,1.3091999999999997
BaLu2CuO5,0.0
BaLu2F8,7.3128
BaLu2NiO5,0.0
BaLu2O4,3.0171
BaLu2O4,2.9254
BaLu2Si3O10,4.830500000000001
BaLuCo4O7,0.7972999999999999
BaLuCo4O7,0.8084000000000002
BaLuCo4O7,0.0
BaLuFe4O7,0.0
BaLuFeCuO5,0.0
BaMg,0.0
BaMg(CO3)2,0.0
BaMg(CO3)2,4.2267
BaMg(CO3)2,4.0847999999999995
BaMg(FeO2)4,1.6564
BaMg(SbO3)2,2.7241999999999997
BaMg149,0.36439999999999984
BaMg14Al,0.0
BaMg14Bi,0.0
BaMg14Cd,0.0
BaMg14Co,0.0
BaMg14CoO16,0.7773999999999992
BaMg14Cr,0.0
BaMg14Cu,0.0
BaMg14CuO16,0.0
BaMg14FeO16,0.9022999999999994
BaMg14Ga,0.0
BaMg14Mn,0.0
BaMg14MnO16,0.7568000000000001
BaMg14MnO16,0.5995999999999997
BaMg14Ni,0.0
BaMg14NiO16,0.6776999999999997
BaMg14NiO16,0.8104000000000005
BaMg14Sb,0.0
BaMg14Si,0.0
BaMg14Sn,0.0
BaMg14Ti,0.0
BaMg14VO16,0.8090999999999999
BaMg14Zn,0.0
BaMg14ZnO16,0.7457000000000003
BaMg14ZnO16,0.9413
BaMg14Zr,0.0
BaMg15,0.0
BaMg2,0.0
BaMg2Al6(Si3O10)3,3.8653
BaMg2FeH8,1.4470999999999998
BaMg2H8Os,2.1357
BaMg2H8Ru,1.9106999999999998
BaMg2N2,0.9633000000000003
BaMg2Si2O7,4.5563
BaMg2V2O8,3.5516
BaMg2V6(Cu4O13)2,0.0
BaMg3,0.0
BaMg30AlO32,0.35960000000000036
BaMg30AlO32,0.3589000000000002
BaMg30BiO32,0.21309999999999896
BaMg30BiO32,0.0
BaMg30CdO32,3.4322000000000004
BaMg30CdO32,2.7714
BaMg30CoO32,1.6434999999999995
BaMg30CoO32,2.2100999999999997
BaMg30CrO32,1.5460999999999991
BaMg30CrO32,0.33450000000000024
BaMg30CuO32,0.7431999999999999
BaMg30CuO32,0.4618000000000002
BaMg30FeO32,2.6279000000000003
BaMg30FeO32,3.0321999999999996
BaMg30MnO32,2.6460999999999997
BaMg30MnO32,1.5848999999999993
BaMg30NbO32,0.10820000000000007
BaMg30NbO32,0.3886000000000003
BaMg30NiO32,3.0784000000000002
BaMg30NiO32,3.728
BaMg30SiO32,1.6209000000000007
BaMg30SiO32,0.6662999999999988
BaMg30SnO32,0.6170999999999998
BaMg30SnO32,1.647100000000001
BaMg30TiO32,0.0
BaMg30VO32,1.7377000000000002
BaMg30VO32,1.0755999999999997
BaMg30ZnO32,3.6403
BaMg30ZnO32,3.2977
BaMg4Ge3,0.0
BaMg4Si3,0.0
BaMg6Al,0.0
BaMg6Cd,0.0
BaMg6Cu,0.0
BaMg6Ga,0.0
BaMg6Zn,0.0
BaMg6Zr,0.0
BaMg7,0.0
BaMgAgF7,0.4246000000000001
BaMgAl3P2(HO7)2,0.0
BaMgAl3P2(HO7)2,0.5051999999999999
BaMgAl3P2(HO7)2,0.029799999999999827
BaMgBO3F,4.1903
BaMgBiF7,5.342099999999999
BaMgCoF7,2.004
BaMgCrF7,3.9409
BaMgCu3O4,0.0
BaMgCuF7,0.49060000000000004
BaMgF4,7.0958
BaMgF4,6.8004999999999995
BaMgFeF7,3.7146999999999997
BaMgGe,0.0
BaMgH4,2.3007
BaMgIn3,0.0
BaMgMn2O5,0.0
BaMgMn4O8,0.7542999999999997
BaMgMnF7,1.6600000000000001
BaMgMnO3,0.2219000000000002
BaMgMoF7,4.7417
BaMgNiF7,1.6007
BaMgO2,3.1592000000000002
BaMgP2O7,5.7042
BaMgSbF7,4.816199999999999
BaMgSi,0.12570000000000014
BaMgSi,0.0
BaMgSiO4,4.113899999999999
BaMgSnF7,0.0
BaMgTe2O7,1.8493999999999997
BaMgTiF7,0.22739999999999982
BaMgV2CuO8,0.1293000000000002
BaMgV2ZnO8,3.1750000000000003
BaMgV4O8,0.9439000000000002
BaMgVF7,2.4216
BaMgWF7,3.9943999999999997
BaMn2Fe4O11,0.9487000000000005
BaMn2FeSi2O9,0.023299999999999876
BaMn2O3,0.0
BaMn2O5,0.0
BaMn2O8,0.0
BaMn2O8,1.6758
BaMn2P2O9,1.1844000000000001
BaMn2Ru4O11,0.0
BaMn2Si2O7,2.6464000000000003
BaMn2V2O8,1.9198
BaMn3(PO4)3,0.0
BaMn3Fe3O11,0.6949999999999998
BaMn3O6,0.0
BaMn4O8,0.0
BaMn4O8,0.39990000000000014
BaMn5(SO4)6,4.3486
BaMn6O12,0.0
BaMn8O16,0.7728999999999999
BaMn9V6(HO13)2,2.1118
BaMn9V6O26,0.006200000000000205
BaMnAlF7,4.6514
BaMnBi2,0.0
BaMnCO3F2,4.0653999999999995
BaMnF4,2.3195
BaMnF5,1.4957
BaMnFeF7,1.6811999999999998
BaMnGaF7,3.624
BaMnInWO6,0.0
BaMnN2,0.0
BaMnNb2O6,0.0
BaMnNb4O12,1.8824
BaMnO2,1.2781000000000002
BaMnO3,0.0
BaMnO3,1.8948
BaMnO3,0.8952999999999998
BaMnO3,1.7073
BaMnO3,0.49829999999999997
BaMnO3,0.7427999999999999
BaMnO3,0.8679000000000001
BaMnO4,0.5058
BaMnP(O2F)2,0.9484000000000001
BaMnP2O7,2.0711999999999997
BaMnP2O7,3.4436999999999998
BaMnPClO4F,2.4600999999999997
BaMnS2,0.0
BaMnSb2,0.0
BaMnSbF,0.0
BaMnSnSe4,0.9141999999999997
BaMnSnWO6,1.6954000000000002
BaMnV2(AgO4)2,2.1258999999999997
BaMnVF7,2.0544000000000002
BaMnZnF7,1.523
BaMo(PO4)2,1.7041999999999997
BaMo(PO4)2,1.5921000000000003
BaMo2(P2O7)2,1.0800999999999998
BaMo2(PO4)3,0.0
BaMo2(PO4)4,2.1075
BaMo2(PO4)4,2.4819000000000004
BaMo2(PO6)2,3.0078
BaMo2P3O14,1.5323000000000002
BaMo2Se2O11,2.2489
BaMo3O10,2.4915000000000003
BaMo3O10,2.7025
BaMo4(PO8)2,1.7998000000000003
BaMo6I2O25,0.0
BaMoF7,2.0488999999999997
BaMoI4O15,0.9874000000000003
BaMoO3,0.0
BaMoO4,3.7927
BaMoSeO6,2.9241
BaN2,0.0
BaN3Cl,4.0786999999999995
BaN6,3.8146000000000004
BaNa,0.0
BaNa,0.08789999999999987
BaNa(B3O5)3,5.5009999999999994
BaNa(FeAs)4,0.0
BaNa(PO3)3,5.3055
BaNa2,0.0
BaNa2(Ge4O9)2,3.0289
BaNa2(SiO3)2,4.1731
BaNa2Al4(SiO4)4,4.757
BaNa2Al4(SiO4)4,4.7346
BaNa2Fe4F12,3.1752
BaNa2Mg(PO4)2,4.8690999999999995
BaNa2Mg(PO4)2,4.7985
BaNa2Nd2Si4CO15,4.8248
BaNa2O2,1.5152
BaNa2O2,1.6082999999999998
BaNa2Pb,0.0
BaNa2Sn,0.0
BaNa2Sr6Al6(OF16)2,0.8469000000000001
BaNa2Ti2(Si2O7)2,3.1601999999999997
BaNa2V2CuO8,0.0
BaNa3(PO4)2,0.0
BaNa3PCO7,3.6661
BaNa3PCO7,3.7744999999999997
BaNa4Cu3F12,0.15959999999999985
BaNa4O3,1.4794999999999998
BaNa4O3,1.3921999999999999
BaNa4Ti2(Si2O5)6,0.0
BaNa4Ti2Si10(BO15)2,3.4488
BaNa4Ti2Si10(BO15)2,3.0028
BaNa5Ca7P6(O8F)3,4.816800000000001
BaNa5LiCo5F18,2.0206000000000004
BaNa6O4,1.5878
BaNa6O4,1.6481999999999999
BaNaAlF6,6.981
BaNaAlMo6(H13O17)2,3.4128
BaNaB5O9,5.0076
BaNaBO3,3.6487
BaNaBi,0.23550000000000004
BaNaBiWO6,2.4274999999999998
BaNaBiWO6,2.2936
BaNaCaMnO6,0.0
BaNaCe2C4O12F,0.24960000000000004
BaNaCeBiO6,1.5674000000000001
BaNaCeBiO6,1.6438000000000001
BaNaCeFeO6,0.0
BaNaCeMnO6,0.0
BaNaCeNbO6,2.0255999999999994
BaNaCeNbO6,2.0165999999999995
BaNaCeSbO6,1.8811000000000004
BaNaCeSbO6,1.8794999999999997
BaNaCeWO6,0.5205999999999995
BaNaCeWO6,0.0
BaNaCr2F9,3.1974
BaNaCrF6,4.3208
BaNaCuBrO2,0.0
BaNaCuClO2,0.0
BaNaDyWO6,2.8635
BaNaEu(SiO3)3,0.0024999999999999467
BaNaEuFeO6,0.0
BaNaEuSeO6,0.0
BaNaEuWO6,0.0
BaNaFe2F9,3.9213
BaNaFe4P6H3O25,0.22329999999999994
BaNaFeF6,4.059
BaNaGaF6,6.093
BaNaGdWO6,2.8728
BaNaGdWO6,2.8189
BaNaH3Pd,1.5042000000000002
BaNaH6Ir,3.2230999999999996
BaNaHfBiO6,1.0663
BaNaHg2,0.0
BaNaIn2(PO4)3,3.3426
BaNaLaFeO6,0.0
BaNaLaSeO6,2.0473000000000003
BaNaLaWO6,3.0444999999999998
BaNaLaWO6,2.9179
BaNaLi3(BO2)6,5.2185
BaNaMg14,0.0
BaNaMg6,0.0
BaNaMnBiO6,0.0
BaNaNbBiO6,0.0
BaNaNd(GeO3)3,3.4575
BaNaNd(SiO3)3,4.7404
BaNaNdFeO6,0.0
BaNaNdMnO6,0.0
BaNaNdSeO6,1.8960999999999997
BaNaNdSi2O7,4.4466
BaNaNdWO6,2.9197000000000006
BaNaNdWO6,2.8256999999999994
BaNaP,0.8555000000000001
BaNaP3(HO2)6,5.144299999999999
BaNaP3H3(NO2)3,4.8274
BaNaPO4,4.174
BaNaPO4,4.6234
BaNaPrBiO6,0.0
BaNaPrFeO6,0.0
BaNaPrMnO6,0.0
BaNaPrNbO6,0.0
BaNaPrSbO6,0.0
BaNaPrSeO6,1.9163000000000006
BaNaPrWO6,2.9179999999999997
BaNaPrWO6,2.8167
BaNaPrWO6,3.0615
BaNaSb,0.42289999999999983
BaNaSbWO6,1.3942999999999994
BaNaSc(BO3)2,3.8127999999999997
BaNaScSi2O7,4.5947000000000005
BaNaSmMnO6,0.0
BaNaSmSeO6,1.8646000000000003
BaNaSmWO6,2.8395
BaNaSmWO6,2.92
BaNaSnBiO6,0.0
BaNaSr3(SbO4)3,1.9361000000000002
BaNaSrMnO6,0.0
BaNaTbBiO6,0.0
BaNaTbWO6,2.8478000000000003
BaNaTiF6,0.24860000000000015
BaNaTiNbO6,1.5650999999999997
BaNaTl2,0.0
BaNaVF6,2.5539
BaNaVS4,1.5001
BaNaY(BO3)2,3.335
BaNaYWO6,2.8552
BaNaZr2F11,5.699199999999999
BaNaZrBiO6,1.0379
BaNaZrBiO6,1.0145
BaNaZrF7,6.0585
BaNb10SiO19,0.014800000000000146
BaNb2(FeO3)4,1.7345000000000002
BaNb2Bi2O9,2.2153
BaNb2CrO6,0.0
BaNb2Fe2(PO4)6,0.9718999999999999
BaNb2Fe2(PO4)6,2.4457999999999998
BaNb2Fe2O9,1.0838999999999999
BaNb2Fe2O9,0.0
BaNb2O6,1.7859
BaNb2O6,2.9040999999999997
BaNb2V2O11,2.1233
BaNb2Xe5F22,2.6409
BaNb3NO7,1.4483
BaNb3NO7,1.5397999999999998
BaNb3NO7,0.6506999999999998
BaNb3NO7,1.2963000000000002
BaNb4(FeO7)2,0.4942
BaNb4(FeO7)2,2.3473
BaNb4Bi4PbO18,1.8561999999999999
BaNb4CrO12,1.4187999999999998
BaNb4O11,2.6601
BaNb4O6,0.0
BaNb5O8,0.0
BaNb6Bi6Pb2O27,0.9104000000000001
BaNb6HO16,1.4865000000000002
BaNb6O17,1.1974
BaNb7(P2O11)3,0.0
BaNb7O9,0.0
BaNb8O14,0.2885
BaNb8O14,0.0
BaNb8O14,0.3041999999999998
BaNb8O14,0.30489999999999995
BaNb8O14,0.33809999999999985
BaNbI5O16,2.8857999999999997
BaNbInSnO6,2.673
BaNbInWO6,0.0
BaNbNO2,0.0
BaNbO3,0.0
BaNbS3,0.0
BaNbTePO8,2.7977
BaNd(CoO3)2,0.0
BaNd(FeO3)2,0.0
BaNd(SnS3)2,0.3689
BaNd2(MoO4)4,3.4405
BaNd2BeO5,3.6389
BaNd2CoO5,1.4058999999999995
BaNd2CoS5,0.0
BaNd2Cu(MoO4)4,0.03799999999999981
BaNd2CuO5,0.5842
BaNd2FeS5,0.0
BaNd2In2O7,2.3845999999999994
BaNd2Mn2O7,0.0
BaNd2MnS5,0.0
BaNd2NiO5,1.9985000000000004
BaNd2O4,3.0972999999999997
BaNd2PdO5,2.2190999999999996
BaNd2PtO5,2.5077000000000003
BaNd2Sc2O7,3.5251
BaNd2Ti3O10,2.2542999999999997
BaNd2Ti3O10,1.9243999999999999
BaNd2ZnO5,3.056
BaNd2ZnS5,1.1433000000000004
BaNd3(CoO3)4,0.0
BaNd4(CoO3)5,0.009600000000000275
BaNdAgS3,1.6623
BaNdCo2O5,0.0
BaNdCrSnO6,1.9219999999999997
BaNdCuBO5,0.0
BaNdCuS3,1.3142000000000005
BaNdCuTe3,0.5138999999999996
BaNdDyFeO6,0.0
BaNdDyMnO6,2.0617
BaNdEuBiO6,0.0
BaNdEuNbO6,0.5202
BaNdEuNbO6,0.12230000000000008
BaNdEuSbO6,0.1501999999999999
BaNdEuSbO6,0.1288999999999998
BaNdEuSbO6,0.6954000000000002
BaNdEuVO6,0.0
BaNdEuWO6,0.19899999999999984
BaNdFe2O5,0.0
BaNdFe2O5,0.9089
BaNdFeCoO6,0.0
BaNdFeSnO6,2.0832000000000006
BaNdGaO4,3.7355
BaNdHf4O12,0.0
BaNdHfZrO6,0.0
BaNdInO4,2.5713
BaNdMgMn2O6,0.0
BaNdMn2O5,0.0
BaNdMn2O6,0.0
BaNdMnCoO5,0.0
BaNdMnCoO6,0.0
BaNdMnSnO6,0.0
BaNdNb4O12,0.0
BaNdNiSbO6,2.6253999999999995
BaNdO3,0.0
BaNdTi4O12,0.0
BaNdZr2O6,0.0
BaNdZr4O12,0.0
BaNi2(AsO4)2,2.8416
BaNi2(PO4)2,0.0
BaNi9As5,0.0
BaNi9P5,0.0
BaNiF4,4.6572
BaNiF6,0.4727
BaNiIO6,0.0
BaNiN,0.0
BaNiO2,2.0426
BaNiO3,0.0
BaNiO3,1.4691999999999998
BaNiO3,1.5157000000000003
BaNiP2O7,3.3322000000000003
BaNiS2,0.0
BaNiSn3,0.0
BaNp(HO2)3,1.4586999999999999
BaNp(PO4)2,0.0
BaNpO3,0.0
BaNpO4,0.5107999999999997
BaNpPH2O7,0.03410000000000046
BaO,2.3602000000000003
BaO,2.1422000000000003
BaO,2.2831
BaO,1.7226
BaO,1.4539
BaO,2.0906000000000002
BaO,2.7678000000000003
BaO,2.0868
BaO10,0.16749999999999998
BaO10,0.0
BaO2,2.2941000000000003
BaO2,2.2352
BaO2,3.6022
BaO4,0.0
BaO6,0.0
BaO6,0.0534
BaOsN2,0.0
BaOsO3,0.0
BaP10,1.2963000000000005
BaP2,0.5585999999999993
BaP2(HO)4,5.2848
BaP2(HO2)4,5.5979
BaP2(HO2)4,4.8488
BaP2(HO4)2,0.4731
BaP2(XeF5)4,2.7024999999999997
BaP2PbO7,4.3622
BaP2PdO7,0.7159999999999997
BaP3,1.3658000000000001
BaP3,0.5735000000000001
BaP3H10C3NO9,5.6733
BaP3NO11,2.4885
BaP3Pt2,0.12919999999999998
BaP4(W2O7)8,0.0
BaP4O11,5.1584
BaP4O11,5.078
BaP4O11,5.2336
BaP4O11,5.1405
BaP6H16(N2O9)2,5.1044
BaP8,0.8917000000000002
BaPAu,0.0
BaPHO4,4.8043000000000005
BaPHO4,5.3765
BaPIr,0.0
BaPO3F,5.25
BaPO4,0.0
BaPPd,0.29559999999999986
BaPPt,0.0
BaPS3,3.1164000000000005
BaPSe3,2.1651000000000002
BaPaO3,0.0
BaPb,0.0
BaPb(SO4)2,4.2418000000000005
BaPb2(SO4)3,4.1749
BaPb2(SO4)3,4.1233
BaPb2BrF5,3.2598
BaPb2C2(O3F)2,4.0572
BaPb2IF5,2.8346000000000005
BaPb3,0.0
BaPb3(NO3)8,3.5843
BaPb3O4,2.0029
BaPbF6,2.8927
BaPbO3,0.19340000000000002
BaPbO3,0.02729999999999988
BaPbO3,0.0
BaPbO3,0.1992999999999996
BaPd,0.026799999999999713
BaPd,0.0
BaPd(IO3)4,1.9057999999999997
BaPd(SeO3)2,1.6510999999999998
BaPd2,0.0
BaPd5,0.0
BaPdCl4,1.2233999999999998
BaPdF4,1.4527
BaPdO3,0.0
BaPdO5,0.35429999999999984
BaPdS2,0.0
BaPdS2,0.3649
BaPm3,0.0
BaPr(CoO3)2,0.0
BaPr(SnS3)2,0.37290000000000045
BaPr2CoS5,0.0
BaPr2CuO5,0.4272
BaPr2FeS5,0.0
BaPr2In2O7,2.4082
BaPr2Mn3O9,0.0
BaPr2MnS5,0.0
BaPr2NiO5,2.1673999999999998
BaPr2O4,3.0759
BaPr2PdO5,2.1388999999999996
BaPr2Sc2O7,3.5432999999999995
BaPr2Ti3O10,1.9472999999999998
BaPr2ZnS5,1.1719999999999997
BaPr3(NiO4)2,0.4406000000000003
BaPrCu2O5,0.0
BaPrCuTe3,0.5658000000000003
BaPrDySnO6,2.8386000000000005
BaPrDyTiO6,2.6390000000000002
BaPrEuNbO6,0.07380000000000031
BaPrEuNbO6,0.5572999999999997
BaPrEuSbO6,0.6932
BaPrEuSbO6,0.13649999999999984
BaPrEuWO6,0.2355999999999998
BaPrFeCuO5,0.0
BaPrFeSnO6,2.0747999999999998
BaPrInWO6,1.3593000000000002
BaPrInWO6,1.9172000000000002
BaPrMg(CoO3)2,0.0
BaPrMgMn2O6,0.3033999999999999
BaPrMn2O5,0.0
BaPrMn2O6,0.0
BaPrO3,0.0
BaPrTaCoO6,1.6852999999999998
BaPt,0.0
BaPt2,0.0
BaPt2S3,0.9791999999999996
BaPt2S3,1.3299999999999996
BaPt3O4,0.0
BaPt5,0.0
BaPtO3,0.0
BaPtO3,0.4158999999999997
BaPuO3,0.0
BaRe2(H2O3)4,3.9972000000000003
BaRe2H12C3N6O11,2.9466
BaRe2H2O9,3.8947000000000003
BaRe2O9,0.4154
BaReH7,0.5214999999999999
BaReH7,0.022400000000000198
BaReH9,3.0092000000000003
BaReH9,3.1242
BaReH9,3.7352999999999996
BaReH9,3.8947
BaReH9,3.7118
BaReH9,3.8349
BaReN3,1.7855000000000003
BaReO3,0.0
BaRh2,0.0
BaRhF6,0.0
BaRhO3,0.0
BaRu2Xe5F22,1.2392999999999998
BaRuN2,0.0
BaRuO3,0.0
BaRuO5,0.8739999999999999
BaS,2.1488
BaS2,1.5981999999999998
BaS3,1.3912999999999998
BaS3,1.0473
BaS4O13,4.6756
BaSO3,4.4264
BaSO4,5.807
BaSO4,5.950699999999999
BaSO4,4.5086
BaSb2,0.0
BaSb2F12,4.040900000000001
BaSb2F12,4.4186
BaSb2Pd,0.0
BaSb2Xe5F22,2.5745
BaSb3,0.0
BaSbAu,0.0
BaSbClO2,2.881
BaSbF5,4.7524999999999995
BaSbF7,2.6294
BaSbPt,0.0
BaSbSe2F,1.3342999999999998
BaSbTe3,0.37429999999999986
BaSc2O4,3.8718
BaSc2Si3O10,4.758
BaSc3AgS6,1.4793999999999996
BaSc6Ni4O15,0.0
BaSc8Ni2O15,3.8545
BaScCu3Se4,1.4923
BaScCuS3,0.8353000000000002
BaScO2F,2.9861999999999997
BaScO3,0.0
BaScZn3GaO7,2.3120000000000003
BaSe,1.9487999999999999
BaSe2,0.6166000000000003
BaSe2O5,3.3889000000000005
BaSe3,0.9260000000000002
BaSeO3,3.8865999999999996
BaSeO4,3.7215
BaSi,0.0
BaSi(HO2)2,4.3515999999999995
BaSi(HO2)2,4.3506
BaSi(S2O7)3,5.2985999999999995
BaSi12Pt5,0.0
BaSi2,0.7812999999999999
BaSi2,0.0
BaSi2(BO4)2,5.5233
BaSi2(H3O4)2,5.0579
BaSi2(NO)2,3.0102
BaSi23,0.0
BaSi2O5,4.7582
BaSi2O5,4.6334
BaSi3Pd,0.0
BaSi3Pt,0.0
BaSi3SnO9,3.7306000000000004
BaSi4O9,4.3452
BaSi6,0.0
BaSi6N8O,4.2279
BaSi7N10,3.9124
BaSi9Rh2,0.17930000000000046
BaSiAu,0.0
BaSiF6,7.4159
BaSiGe,0.06059999999999999
BaSiN2,2.9202000000000004
BaSiO3,4.5344999999999995
BaSiO3,4.6215
BaSiO3,4.542
BaSiP4(HO7)2,5.7482999999999995
BaSiPd,0.0
BaSiPt,0.0
BaSm(CoO3)2,0.0
BaSm2(CoO3)2,0.13059999999999983
BaSm2(MoO4)4,3.3785
BaSm2CoO5,1.4676
BaSm2CuO5,0.0
BaSm2FeS5,0.0
BaSm2NiO5,2.2387000000000006
BaSm2O4,3.1845999999999997
BaSm2PdO5,2.032
BaSm2PtO5,2.6307
BaSm2Sc2O7,3.5340000000000003
BaSm2Ti3O10,1.9530000000000003
BaSm2ZnO5,3.4402999999999997
BaSm4Si3SeO12,2.5404
BaSm5Al3Si9N20O,2.8745000000000003
BaSm5Al3Si9N20O,2.766
BaSmC2O6F,4.295999999999999
BaSmCoCuO6,0.0
BaSmCrSnO6,1.9596999999999998
BaSmCuBO5,0.5394000000000001
BaSmEuBiO6,0.0
BaSmEuSbO6,0.5838999999999999
BaSmEuSbO6,0.06529999999999969
BaSmEuVO6,0.0
BaSmEuWO6,0.04830000000000023
BaSmEuWO6,0.0
BaSmFeCuO5,0.0
BaSmFeSnO6,2.1068999999999996
BaSmHf4O12,0.0
BaSmTi4O12,0.0
BaSn,0.0
BaSn(GeO3)3,2.7866000000000004
BaSn(HO)6,3.6559999999999997
BaSn(PO4)2,3.7034999999999996
BaSn2,0.0
BaSn2(HO2)2,2.102
BaSn2Bi,0.0
BaSn2S3,1.1834999999999996
BaSn2S3,1.3045
BaSn2S5,1.5453000000000001
BaSn3,0.0
BaSn3Au,0.0
BaSn3Pd,0.0
BaSn3Pt,0.0
BaSn3S4,1.2542
BaSn5,0.0
BaSnF4,3.6599
BaSnF4,3.7754000000000003
BaSnF6,4.9883
BaSnH16O11,3.6936
BaSnHg,0.0
BaSnHgS4,1.8559
BaSnHgS4,1.8593
BaSnN2,0.7749999999999995
BaSnO3,0.6650999999999998
BaSnO3,0.37239999999999984
BaSnS2,1.638
BaSnS3,0.8569
BaSr,0.0
BaSr(CoO3)2,0.0
BaSr(CuO2)2,0.0
BaSr(FeO2)4,1.6339
BaSr(FeO2)4,0.6352
BaSr(FeO3)2,0.0
BaSr(MoO3)2,0.0
BaSr(PbO3)2,0.5665
BaSr(SnO3)2,0.6697000000000006