formula,band_gap
CdI2,2.3655999999999997
CdI2,2.4195
CdI2,2.3217999999999996
CdI2,2.2164
CdI2,2.2640000000000002
CdI2,2.3572
CdI2,2.3555
CdI2,2.0305999999999997
CdI2,2.3484999999999996
CdI2,2.3514999999999997
CdI2,2.3662
CdI2,2.3663
CdI2,2.4139
CdI2,2.3549
CdI2,2.3628
CdI2,2.3893000000000004
CdI2,2.3909000000000002
CdI2,2.3769
CdI2,2.3621
CdI2,2.3541
CdI2,2.3629
CdI2,2.3952999999999998
CdI2,2.3388
CdI2,2.3729
CdI2,2.4043
CdI2,2.3605
CdI2,2.3627
CdI2,2.3382
CdI2,2.395
CdI2,2.2334
CdI2,2.4082
CdI2,2.3710999999999998
CdI2,2.4063
CdI2,2.3728
CdI2,2.4112999999999998
CdI2,1.9111
CdI2,2.3821
CdI2,2.3518
CdI2,2.393
CdI2,2.3696
CdI2,2.4004999999999996
CdI2,2.3506
CdI2,2.3649
CdI2,2.3644
CdI2,2.3794
CdI2,2.4018
CdI2,2.36
CdI2,2.464
CdI2,2.3705
CdI2,2.3615
CdI2,2.3499
CdI2,2.3609
CdI2,2.3544
CdI2,2.4482
CdI2,2.3543000000000003
CdI2,2.3601
CdI2,2.3557
CdI2,2.4236
CdI2,2.3623000000000003
CdI2,2.386
CdI2,2.3731
CdI2,2.4013999999999998
CdI2,2.3755
CdI2,2.3728000000000002
CdI2,2.3546
CdI2,2.3734
CdI2,2.4410000000000003
CdI2,2.4398
CdI2,2.3554000000000004
CdI2,2.3715
CdI2,2.3966
CdI2,2.4061000000000003
CdI2,2.3803
CdI2,2.4027000000000003
CdI2,2.4107
CdI2,2.4303000000000003
CdI2,2.4074999999999998
CdI2,2.3743000000000003
CdI2,0.0
CdI2,2.3414
CdI2,2.3318000000000003
CdI2,2.3339
CdI2,2.3365
CdI2,2.3295000000000003
CdI2,2.3569
CdI2,2.3550999999999997
CdI2,2.3663000000000003
CdI2,2.3403
CdI2,2.3289
CdI2,2.3394
CdI2,2.3609999999999998
CdI2,2.3368
CdI2,2.3383
CdI2,2.35
CdI2,2.3311
CdI2,2.3352
CdI2,2.3349
CdI2,2.325
CdI2,2.3667999999999996
CdI2,2.3317
CdI2,2.3277
CdI2,2.3412
CdI2,2.343
CdI2,2.3354000000000004
CdI2,2.3316
CdI2,2.3364
CdI2,2.3391
CdI2,2.3396
CdI2,2.3251
CdI2,2.3186
CdI2,2.3352000000000004
CdI2,2.3215
CdI2,2.3449999999999998
CdI2,2.3597
CdI2,2.3474
CdIBr,2.198
CdIClO3,3.3467000000000002
CdIO4,0.0
CdIn,0.0
CdIn2(SeS)2,0.05290000000000017
CdIn2(SeS)2,0.0
CdIn2O4,0.9137000000000004
CdIn2O4,0.000700000000000145
CdIn2SeS3,1.2832
CdIn2SnAu2,0.0
CdIn3,0.0
CdIn3Te4As,0.5664000000000002
CdIn4As4S,0.00990000000000002
CdInAgTe3,0.0
CdInAsSe,0.0
CdInBr3,2.2208
CdInGaS4,0.2643
CdInPd2,0.0
CdInRh2,0.0
CdInS2,0.0
CdIrO3,0.0
CdMoO4,2.4682
CdMoPO6,0.0
CdN6,2.7759
CdNO4,0.043200000000000016
CdNi,0.0
CdNi(PO3)4,0.04299999999999993
CdNi2H24(ClO2)6,4.0435
CdNi3C,0.0
CdNi3N,0.0
CdNiO2,0.0
CdO,0.0
CdO2,1.2535000000000003
CdP14Pb,1.0405000000000002
CdP14Pb,1.3747999999999996
CdP2,1.4562000000000004
CdP2,1.4897999999999998
CdP2,1.4556
CdP2(H4O5)2,4.2806
CdP2(HO)4,4.3761
CdP2(HO2)4,4.221
CdP2H10(NO4)2,4.1723
CdP2H6O7,4.8411
CdP2Xe5F22,2.4129
CdP4,0.6551
CdP4O11,4.3777
CdP6Pb9O26,0.0
CdPH6NO5,3.2768
CdPHO3,3.4609
CdPNO5,2.3508
CdPPd5,0.0
CdPPt5,0.0
CdPS3,1.7561999999999998
CdPS3,1.7726999999999997
CdPSe3,1.0486
CdPb2(ClO)2,2.4354999999999998
CdPb3,0.0
CdPb3Se4,0.5819999999999999
CdPbF6,2.3364000000000003
CdPbO3,0.0
CdPbS2,0.9252000000000002
CdPbS2,0.0
CdPd,0.0
CdPd2Au,0.0
CdPd3,0.0
CdPd3O4,0.0
CdPd5Se,0.0
CdPdF4,0.0
CdPdF6,1.7751000000000001
CdPt,0.0
CdPt3,0.0
CdPt3O4,0.0
CdPtF6,2.1901
CdRe2(H2O5)2,0.19140000000000001
CdRe2H16C4S4(NO)8,2.0845
CdRe2H26C6S6(N4O3)3,2.5258000000000003
CdRe2H8C2(N2O5)2,2.5378
CdRe2H8C2S2(NO2)4,2.7767999999999997
CdRh2Pb,0.0
CdRhF6,0.0
CdS,0.2766000000000002
CdS,1.0492
CdS,0.2793000000000001
CdS,1.125
CdS2,1.1625
CdS2O7,3.9405
CdSO3,3.0449
CdSO3,3.2188
CdSO3,3.0731
CdSO4,1.5751000000000002
CdSO4,3.0499
CdSO4,2.8625
CdSb,0.0
CdSb,0.020099999999999785
CdSb2Se3Br2,1.1429
CdSb3,0.0
CdSb5OF28,0.0242
CdSb6(S2I)4,1.5565000000000002
CdSbAu,0.0
CdSbS2Br,1.5284999999999997
CdSbS2Cl,1.6373000000000002
CdSe,0.0
CdSe,0.5724
CdSe,0.5096
CdSe2,0.6141999999999999
CdSe2O5,2.9054
CdSeO3,3.4047
CdSeO3,3.0904000000000007
CdSeO4,1.5661999999999998
CdSeO4,1.6838
CdSeO4,1.8471
CdSeO4,1.94
CdSi3AsH27C9I2,3.2149
CdSi3PH27C9Br2,3.6784
CdSi3PH27C9I2,3.275
CdSi7N10,1.7004000000000001
CdSiAs2,0.4001999999999999
CdSiN2,1.5532999999999992
CdSiN2,1.7916999999999996
CdSiN2,1.6216
CdSiO3,2.573
CdSiO3,2.5256
CdSiP2,1.4257
CdSn,0.0
CdSn2H12(OF)6,4.0588
CdSnAs2,0.0
CdSnAs2,0.006299999999999972
CdSnAu,0.0
CdSnF6,3.8568
CdSnN2,0.0
CdSnO3,0.7079
CdSnO3,0.9762
CdSnO3,0.6903999999999999
CdSnP14,1.4444999999999997
CdSnP2,0.26949999999999985
CdSnRh2,0.0
CdSnSb2,0.0
CdSnTe2,0.0
CdTcO3,0.0
CdTe,0.0
CdTe,0.6185999999999998
CdTe,0.021500000000000075
CdTe,0.025500000000000078
CdTe,0.5846000000000002
CdTe,1.4843000000000002
CdTe(Pb3O5)2,2.0854
CdTe2Pb,0.0
CdTeMoO6,3.1893999999999996
CdTeO3,3.0793
CdWO4,3.2626999999999997
Ce,0.0
Ce(AgGe)2,0.0
Ce(Al10Co)2,0.0
Ce(Al10Cr)2,0.0
Ce(Al10V)2,0.02179999999999893
Ce(Al2Cr)4,0.0
Ce(Al2Cu)4,0.0
Ce(Al2Fe)4,0.0
Ce(Al4Co)2,0.0
Ce(Al4Fe)2,0.0
Ce(Al5Fe)2,0.0
Ce(Al5Ru)2,0.0
Ce(AlAu)2,0.0
Ce(AlBr4)3,0.2026
Ce(AlGa)2,0.0
Ce(AlGe)2,0.0
Ce(AlPd)2,0.0
Ce(AlSi)2,0.0
Ce(AlZn)2,0.0
Ce(As3Os)4,0.0
Ce(As3Ru)4,0.23819999999999997
Ce(AsPd)2,0.0
Ce(AsRh)2,0.0
Ce(BC)2,0.0
Ce(BH4)3,0.3439
Ce(BIr)2,0.0
Ce(BIr)4,0.0
Ce(BO2)3,0.0389999999999997
Ce(BO2)3,0.1462999999999992
Ce(BO2)3,0.0
Ce(BOs)2,0.0
Ce(BOs)4,0.22689999999999966
Ce(BRh)4,0.0
Ce(BRu)2,0.0
Ce(BRu)4,0.0
Ce(Cd10Ni)2,0.0
Ce(Cd10Pd)2,0.0
Ce(CdAs)3,0.0
Ce(ClO4)3,0.0
Ce(ClO4)4,1.1804000000000001
Ce(Co2B)6,0.0
Ce(Co5Mo)2,0.0
Ce(CoAs)2,0.0
Ce(CoB)4,0.0
Ce(CoGe)2,0.0
Ce(CoP)2,0.0
Ce(CoP3)16,0.0
Ce(CoSi)2,0.0
Ce(CrB3)2,0.0
Ce(CrSi)2,0.0
Ce(Cu2P)2,0.0
Ce(CuGe)2,0.0
Ce(CuSb)2,0.0
Ce(CuSi)2,0.0
Ce(CuSn)2,0.0
Ce(ErS2)3,0.0
Ce(Fe5Re)2,0.0
Ce(FeAs3)4,0.14670000000000005
Ce(FeB)4,0.0
Ce(FeGe)2,0.0
Ce(FeP)2,0.0
Ce(FeP3)4,0.5208999999999993
Ce(FeSb3)4,0.2311999999999994
Ce(FeSi)2,0.0
Ce(Ga4Co)2,0.0
Ce(Ga4Fe)2,0.0
Ce(GaNi)2,0.0
Ce(GaPd)2,0.0
Ce(Ge2Rh3)2,0.0
Ce(Ge3Pt)4,0.0
Ce(GeAu)2,0.0
Ce(GeIr)2,0.0
Ce(GePd)2,0.0
Ce(GePt)2,0.0
Ce(GeRh)2,0.0
Ce(GeRu)2,0.0
Ce(HO)3,0.0
Ce(HoS2)3,0.0
Ce(IO3)2,0.4683999999999999
Ce(IO3)3,0.5691999999999999
Ce(IO3)3,0.10469999999999935
Ce(IO3)4,1.4876
Ce(In2Au)2,0.0
Ce(In2Ni)3,0.0
Ce(In2Pd)2,0.0
Ce(InPt)2,0.0
Ce(LuS2)3,0.0
Ce(Mg4Al3)4,0.0
Ce(MgSi)2,0.0
Ce(Mn2Fe)4,0.0
Ce(MnAl2)4,0.0
Ce(MnCo2)4,0.0
Ce(MnGe)2,0.0
Ce(MnSi)2,0.0
Ce(Mo3S4)2,0.3384999999999998
Ce(Mo3Se4)2,0.2967000000000004
Ce(NdS2)2,0.0
Ce(Ni2B)6,0.0
Ce(Ni2Sn)2,0.0
Ce(Ni5P2)2,0.0
Ce(NiAs)2,0.0
Ce(NiGe)2,0.0
Ce(NiP)2,0.0
Ce(NiSb)2,0.0
Ce(NiSn)2,0.0
Ce(P3Os)4,0.2829999999999995
Ce(P3Ru)4,0.19150000000000134
Ce(PIr)2,0.0
Ce(PO3)3,0.22279999999999944
Ce(PO3)4,1.2397
Ce(PPd)2,0.0
Ce(PPt)2,0.0
Ce(PPt2)2,0.0
Ce(PRh)2,0.0
Ce(PRu)2,0.0
Ce(PrS2)2,0.0
Ce(Re2Si)2,0.0
Ce(SO4)2,1.0168
Ce(Sb3Os)4,0.05140000000000011
Ce(Sb3Ru)4,0.04330000000000034
Ce(SbPd)2,0.0
Ce(SeO3)2,1.2671
Ce(SeO4)2,1.2847
Ce(SiAg)2,0.0
Ce(SiAu)2,0.0
Ce(SiAu2)2,0.0
Ce(SiIr)2,0.0
Ce(SiNi)2,0.0
Ce(SiOs)2,0.0
Ce(SiPd)2,0.0
Ce(SiPt)2,0.0
Ce(SiRh)2,0.0
Ce(SiRu)2,0.0
Ce(SmS2)2,0.0
Ce(Sn2Pd)2,0.0
Ce(Sn2Rh)2,0.0
Ce(Sn3Ru2)2,0.0
Ce(SnIr)2,0.0
Ce(SnPd)2,0.0
Ce(SnPt)2,0.0
Ce(TeO3)2,1.0911
Ce(TiAl10)2,0.0
Ce(Tl3Te2)3,0.2743000000000002
Ce(TmS2)3,0.0
Ce(WO4)2,1.7063
Ce(WO4)2,1.4584000000000001
Ce(WO4)2,1.3613
Ce(YS2)3,0.0
Ce(YSi)4,0.0
Ce(Zn10Ir)2,0.0
Ce(ZnAu2)2,0.0
Ce(ZnP)3,0.0
Ce10(B3C4)3,0.0
Ce10(NiSn)3,0.0
Ce10Ga5Br4,0.0
Ce10Ga5Cl4,0.0
Ce10S14O,0.0
Ce10S19,0.0
Ce10Se14O,0.009299999999999642
Ce10Se19,0.0
Ce10Si10BrN17O9,0.0
Ce10Si5Ni,0.0
Ce10Si8O3,0.0
Ce10Te19,0.0
Ce10US16,0.0
Ce10Y22O53,1.8209
Ce11(Ni2Ge3)2,0.0
Ce11In9Ni4,0.0
Ce11MnS16,0.0
Ce11O20,0.0
Ce12(ReC3)5,0.0
Ce12C6I17,0.0
Ce12InPt7,0.0
Ce12Sn5Ge3,0.0
Ce13O24,0.0
Ce13Zn58,0.0
Ce14Gd18O55,1.4543
Ce14Si11Ni6,0.0
Ce14Y18O55,1.6835999999999998
Ce15B8N25,0.0
Ce15Ni32,0.0
Ce16O27,0.0002999999999993008
Ce16Ru9,0.0
Ce17O32,0.0
Ce18C18Cl11,0.0
Ce19Ga13,0.0
Co(RhS2)2,0.03819999999999979
Co(RhSe2)2,0.0
Co(SO4)2,0.0
Co(SbO2)2,0.0
Co(SbO3)2,0.0
Co(Si2O5)2,1.0566
Co(SiO3)2,0.8842000000000001
Co(SiO3)2,0.3994
Co(SiP)3,1.2632000000000003
Co(TePd)2,0.0
Co(W3Cl7)2,0.38960000000000017
Co(WCl5)2,0.0
Co(WO4)2,0.0
Co10Ge3O16,1.4422999999999995
Co10SnSb30,0.0
Co11B4SbO20,0.0
Co11CuO16,0.0
Co12Ge4C,0.0
Co15O28,0.48350000000000004
Co17Se20,0.0
Co19(Si2B)4,0.0
Co19Te34,0.0
Co2(CN2)3,0.8468
Co2(CO3)3,0.8501
Co2(GeS)3,0.0
Co2(GeSe)3,0.37370000000000037
Co2(GeTe)3,0.47409999999999997
Co2(PO3)5,0.0011999999999998678
Co2(PO3)5,0.016899999999999915
Co2(SO4)3,0.13950000000000007
Co2(SO4)3,0.5473
Co2(SO4)3,0.4141
Co2(SnSe)3,0.33840000000000003
Co2(SnTe)3,0.41710000000000047
Co20(As4O19)3,0.10739999999999994
Co21(B3Mo)2,0.0
Co21(B3Sb)2,0.0
Co21(B3W)2,0.0
Co21(GeB3)2,0.0
Co21(ReB3)2,0.0
Co21(SnB3)2,0.0
Co21Cu3O32,0.017000000000000348
Co21O40,0.0
Co22B6Sb,0.0
Co23B6,0.0
Co23O32,0.0
Co25Cu11O48,0.0
Co27Se32,0.0
Co29Ge13O56,0.0
Co29O40,0.0
Co2Ag3SbO6,0.37950000000000017
Co2As,0.0
Co2As2O5,1.9352
Co2As2O7,1.7711999999999999
Co2As2O7,1.8641999999999999
Co2As2O7,1.9878000000000005
Co2As2O7,1.9929000000000006
Co2As2O7,0.0
Co2As2O7,1.5277000000000003
Co2As2O9,0.8107
Co2AsClO4,0.0
Co2AsHO5,1.9639
Co2AsO5,0.2017
Co2B,0.0
Co2B4Mo,0.0
Co2BP3(H3O7)2,3.0194
Co2BP4H2Pb4ClO18,3.0187
Co2Bi11O20,1.0501000000000005
Co2BiB(PO5)2,2.0164999999999997
Co2C,0.0
Co2C2O7,0.7283000000000001
Co2C2O7,0.5665999999999999
Co2C2O7,0.5612999999999999
Co2C2O7,0.47699999999999987
Co2ClO3,0.0
Co2CuGe2,0.0
Co2CuO4,0.0
Co2CuS4,0.0
Co2Ge,0.0
Co2GeO4,0.0
Co2H21I7(N2O)3,0.0
Co2H21S3(NO2)6,1.1220999999999999
Co2H22C(N2O3)4,2.9117
Co2H2CO5,2.3651999999999997
Co2H31S2N9O11,2.6535
Co2H36N13Cl5O3,2.5031
Co2H36Pt3(NCl)12,1.7355
Co2Hg2H2S2O11,1.4606000000000001
Co2HgO4,0.4691000000000001
Co2HgO4,0.0
Co2Mo3N,0.0
Co2Mo3O8,0.0
Co2Mo4C,0.0
Co2Mo4N,0.0
Co2N,0.0
Co2NO6,0.0
Co2Ni2Te5,0.0
Co2Ni3Sb(PO4)6,0.0
Co2NiN2,0.0
Co2NiO4,0.0
Co2NiO4,0.5621999999999998
Co2NiO6,0.0
Co2NiS4,0.0
Co2NiSe4,0.0
Co2O3F,0.0
Co2O3F,0.06230000000000002
Co2O3F,0.010299999999999976
Co2O3F,0.02179999999999982
Co2OF3,0.3538000000000001
Co2OF3,0.10950000000000004
Co2OF3,0.42169999999999996
Co2OF3,0.07699999999999996
Co2OF3,0.0
Co2OF3,0.34150000000000014
Co2OF3,0.6714
Co2OF3,0.26249999999999996
Co2OF3,0.6955
Co2OF3,0.49570000000000003
Co2OF3,0.5688
Co2P,0.0
Co2P2H12O13,3.0964
Co2P2H4O9,0.0
Co2P2H4PbO10,2.6443000000000003
Co2P2O7,2.2685
Co2P2O7,0.9399000000000002
Co2P2O7,2.0784000000000002
Co2P2O7,0.9363000000000001
Co2P3H11N2O9,0.0
Co2P3O10,0.10450000000000004
Co2P3O10,0.0
Co2P3O10,0.516
Co2P5O16,0.0
Co2PClO4,2.6302000000000003
Co2PH2CO7,2.4370000000000003
Co2PHO5,2.4941000000000004
Co2PO4F,2.9575000000000005
Co2PO5,0.0
Co2PS3,0.0
Co2Pd,0.0
Co2Re5B4,0.0
Co2Re5P12,0.0
Co2RhS4,0.0
Co2RuO4,0.0
Co2S3,0.0
Co2Sb2O7,0.7709999999999999
Co2SbAs,0.0
Co2SbO6,0.0
Co2SbTe,0.0
Co2Si,0.0
Co2Si(P2O7)2,0.0
Co2SiGe,0.0
Co2SiO4,1.3083999999999998
Co2SiO4,0.0
Co2SnO4,0.0
Co2SnO4,0.09589999999999943
Co2TcO4,0.0
Co2Te3O8,2.4752
Co2TeBr2O3,2.2773000000000003
Co2TeCl2O3,0.0
Co2TeSO8,0.021999999999999797
Co2W4C,0.0
Co3(AsO4)2,1.7365
Co3(AsO4)2,2.0452000000000004
Co3(AsO4)2,1.6742000000000004
Co3(BO3)2,0.0
Co3(Ni3S4)2,0.0
Co3(O2F)2,0.0
Co3(OF2)2,0.33940000000000003
Co3(OF2)2,0.0042999999999999705
Co3(OF2)2,0.4456000000000001
Co3(OF2)2,0.0
Co3(OF2)2,0.1682999999999999
Co3(OF2)2,0.04300000000000015
Co3(OF2)2,1.1594
Co3(OF2)2,0.08219999999999983
Co3(OF2)2,0.16199999999999992
Co3(OF2)2,0.024700000000000166
Co3(P2O7)2,0.46609999999999996
Co3(P2O7)2,0.0
Co3(P2O7)2,0.020000000000000018
Co3(P2O7)2,0.09699999999999998
Co3(P2O7)2,0.45120000000000005
Co3(P2O7)2,0.28180000000000005
Co3(P3O10)2,0.195
Co3(PO4)2,2.6933
Co3(PO4)2,2.5122
Co3(PO4)2,1.6360000000000001
Co3(PO4)2,2.5052000000000003
Co3(PO4)4,0.0
Co3(PO4)4,0.025899999999999923
Co3(PO5)2,0.0
Co3(ReB)4,0.0
Co3(SO6)2,0.04619999999999999
Co3(SeO3)4,0.0036000000000000476
Co3(SnS)2,0.0
Co3Ag(AsO4)3,0.0
Co3Ag2(P2O7)2,2.0647
Co3Ag2P3HO12,0.0
Co3AgP3(HO6)2,2.5163
Co3As2(HO)16,2.9265000000000003
Co3B,0.0
Co3B11HO20,2.1750000000000003
Co3B7BrO13,2.146
Co3B7ClO13,2.2683000000000004
Co3B7IO13,1.9379999999999997
Co3B7IO13,2.2508999999999997
Co3B7O13F,2.2897000000000003
Co3BO5,0.0
Co3BPO7,0.0033000000000003027
Co3BiO8,0.0
Co3BiO8,0.27770000000000006
Co3C,0.0
Co3C2(SeO5)2,1.9791
Co3Cu,0.0
Co3Cu(PO4)4,0.0
Co3Cu(SnS4)2,0.0
Co3Cu3(TeO6)2,0.44570000000000043
Co3Cu3(TeO8)2,0.0
Co3CuH56(SO11)4,1.0868
Co3Ge2,0.0
Co3H,0.0
Co3H2Se3O10,2.486
Co3Ir,0.0
Co3Mo,0.0
Co3Mo3C,0.0
Co3Mo3N,0.0
Co3N,0.0
Co3Ni,0.0
Co3Ni(PO4)4,0.0
Co3Ni2Te3O16,0.0
Co3Ni3(TeO8)2,0.16469999999999985
Co3Ni3S8,0.0
Co3Ni9P4,0.0
Co3NiO8,0.9433999999999999
Co3NiO8,0.0
Co3NiSb12,0.0
Co3O4,0.0
Co3O5F,0.0
Co3OF5,0.49839999999999995
Co3OF5,0.6702
Co3OF5,0.1066999999999999
Co3OF5,1.1725999999999999
Co3OF5,0.0
Co3OF5,0.35239999999999994
Co3OF5,0.08619999999999994
Co3OF5,1.1396
Co3OF5,0.05889999999999995
Co3OF5,0.8431
Co3OF5,0.49929999999999997
Co3OF5,0.15470000000000006
Co3OF5,0.9779
Co3OF5,0.9136
Co3Os,0.0
Co3P,0.0
Co3P2(H2O3)4,3.0494
Co3P2(H2O5)2,0.0
Co3P2(HO)16,2.3677
Co3P2H2O9,0.0
Co3P2O9,0.4639
Co3P2O9,0.0
Co3P3O11,0.0
Co3P4H48(NO15)2,2.7396
Co3P4H8N2(O3F)4,2.4025
Co3P4O15,0.0
Co3P4PbO14,3.0652000000000004
Co3P6WO24,0.1457
Co3PW2,0.0
Co3Pt,0.0
Co3Re25B12,0.0
Co3ReB4,0.0
Co3Rh,0.0
Co3Ru,0.0
Co3S4,0.0
Co3Sb(PO4)4,0.13670000000000027
Co3Sb4(OF)6,2.343
Co3SbN,0.0
Co3SbO8,0.2272000000000003
Co3SbO8,0.0
Co3Se4,0.0
Co3Se4(ClO5)2,2.6502
Co3Si,0.0
Co3SiGe2,0.0
Co3SiMo2,0.0
Co3Sn,0.0
Co3Sn(PO4)4,0.1886000000000001
Co3Sn2,0.0
Co3SnC,0.0
Co3SnO8,0.0
Co3Te2(PO7)2,0.0
Co3TeO6,1.0655000000000006
Co3TeO8,0.6437000000000002
Co3TeO8,0.3433999999999999
Co3TeO8,0.7554999999999998
Co3TeO8,0.4005000000000001
Co3TeO8,0.14180000000000015
Co3TeO8,0.49119999999999986
Co3TeO8,0.0
Co3W,0.0
Co3W3C,0.0
Co3W3N,0.0
Co3WO8,0.0
Co4(CuO4)3,0.0
Co4(CuO4)3,0.16670000000000007
Co4(P2O7)3,0.8935000000000001
Co4B,0.0
Co4B6O13,3.0013
Co4Cu3(NiSe6)2,0.0
Co4CuNiS8,0.0
Co4GeP4(H6O11)2,3.1437
Co4H,0.0
Co4N,0.0
Co4NiO8,0.9011
Co4NiO8,0.0
Co4NiSb12,0.0
Co4OF11,0.33140000000000014
Co4OF11,0.6344
Co4Os,0.0
Co4Ru,0.0
Co4SbO8,0.0
Co4Se3Cl2O9,2.4618
Co4SnSb12,0.0
Co4Te3N2,0.0
Co4TeO8,0.7538
Co4TeO8,0.0
Co5(Bi2O5)4,0.03950000000000031
Co5(P2O7)4,0.0
Co5(P2O7)4,0.017199999999999993
Co5(P3O11)2,0.09630000000000005
Co5(PO6)2,0.03000000000000025
Co5(SnSb)2,0.0
Co5As2,0.0
Co5B16,0.0
Co5B2P,0.0
Co5BiO12,0.0
Co5CuN4,0.0
Co5CuO8,0.0
Co5CuS8,0.0
Co5NiN4,0.0
Co5NiO12,1.1427999999999998
Co5NiS8,0.0
Co5O8,0.0
Co5P4(HO2)10,2.7213000000000003
Co5P4H12(O8F)2,2.0431
Co5RuO8,0.0
Co5RuO8,0.004999999999999893
Co5Sb15I,0.0
Co5SbO12,0.0
Co5SbO8,0.20869999999999989
Co5SbO8,0.5872999999999999
Co5SbO8,0.6377000000000002
Co5SbO8,0.06720000000000015
Co5SbO8,0.0
Co5Se4(BrO6)2,2.3267999999999995
Co5Se4(ClO6)2,2.5561
Co5SnO12,0.9953999999999998
Co5Te3O16,0.14610000000000056
Co5Te4(BrO6)2,2.1066000000000003
Co5Te4(ClO6)2,2.3649000000000004
Co5Te4Cl4O11,2.4393000000000002
Co5Te6,0.0
Co6BP,0.0
Co6Mo6C,0.0
Co6O5F7,0.0
Co6O5F7,0.3609
Co6O5F7,0.08719999999999994
Co6O5F7,0.6033000000000002
Co6O5F7,0.16700000000000004
Co6O5F7,0.048899999999999944
Co6O7F5,0.26759999999999984
Co6O7F5,0.0
Co6OF11,0.6397999999999999
Co6OF11,0.5509
Co6OF11,0.5147
Co6OF11,0.7002000000000002
Co6OF11,0.6333
Co6OF11,1.0381
Co6P7O24,0.0
Co6Te3(ClO6)2,2.1270000000000002
Co6Te5O16,2.1733
Co6W20C7,0.0
Co6WN4,0.0
Co7(AsO6)2,0.0
Co7(AsO6)2,0.7440999999999995
Co7(RuO6)2,0.1307999999999998
Co7(RuO6)2,0.0
Co7(SbO6)2,0.0
Co7(SbO6)2,0.5510999999999999
Co7(SbO6)2,0.5730999999999993
Co7B24(H3O23)2,2.9523
Co7CuAs4(HO5)4,0.0
Co7Ge4,0.0
Co7Mo6,0.0
Co7NiP4,0.0
Co7O12,0.1673
Co7O12,0.0
Co7P6(HO6)4,2.5609
Co7Re17O48,0.0
Co7Te4(BrO2)6,2.2401
Co8As3O16,0.0
Co8Cu7(MoO4)12,0.0
Co8RhS8,0.0
Co8RuS8,0.0
Co8Te(AsO8)2,0.7623000000000002
Co9Cu3O16,0.0
Co9S8,0.0
Co9Se8,0.0
Co9Te5(PbO5)6,1.3596000000000004
CoAg(NO3)3,2.2574
CoAg(PO3)3,0.011699999999999822
CoAg2Sn3S8,0.0
CoAgO2,1.1935000000000002
CoAgO2,1.3319999999999999
CoAgO2,0.2622
CoAgO3,0.0
CoAgPO4,1.7666000000000004
CoAgPO4,1.7129000000000003
CoAs,0.0
CoAs2,0.0
CoAs2,0.1722999999999999
CoAs2S4(O2F3)4,2.5374000000000003
CoAs3,0.0
CoAs3OF18,0.0
CoAs4F18,3.1327
CoAsO4,0.0
CoAsRh,0.0
CoAsS,0.0
CoAsS,0.8512000000000004
CoAsS,0.9413
CoAsSe,0.0
CoAsSe,0.6981999999999999
CoAsSe,0.3947000000000003
CoAu4,0.0
CoAuO2,0.0
CoAuO2,0.5045999999999999
CoB,0.0
CoB10(H7C4)3,1.7818999999999998
CoB10H19C11,1.7185
CoB10H21(C6Cl)2,1.7155
CoB10H23C13,1.6643
CoB10H23C13,1.5361
CoB10H31C18O,1.8064
CoB12H28(NO15)2,0.6787999999999998
CoB4O7,1.2615999999999996
CoB4O7,3.2709
CoBH18Br2(N3F2)2,2.331
CoBH18N6(ClF2)2,3.1185
CoBMo,0.0
CoBO3,0.1471
CoBO3,1.0667
CoBP(HO3)2,2.439
CoBP(HO3)2,2.8865
CoBP2HPbO9,3.324
CoBP2HPbO9,3.2483000000000004
CoBW,0.0
CoBi2SO7,2.2447999999999997
CoBi2SO7,0.06450000000000067
CoBi3,0.0
CoBi6(SO8)2,2.3500999999999994
CoBi6(SO8)2,2.3186000000000004
CoBi6(SO8)2,0.027000000000000135
CoBi6(SO8)2,1.9022999999999994
CoBi6(SO8)2,1.6303
CoBi6P2(O7F)2,1.7039999999999997
CoBiAsO5,2.0761000000000003
CoBiO3,0.38780000000000037
CoBiO3,0.0
CoBiO4,0.5144000000000002
CoBiPO5,2.3229999999999995
CoBiTe,0.0
CoBr2,0.10720000000000007
CoBrO,0.0
CoBrO,0.5972
CoCO3,0.0
CoCl2,0.09100000000000019
CoCl2,0.08430000000000004
CoCl2,0.06279999999999974
CoCl2,0.07909999999999995
CoCl6,0.2615999999999996
CoCu(PO4)2,0.005099999999999882
CoCu2(BO3)2,0.0
CoCu2GeS4,0.0
CoCu2GeSe4,0.0
CoCu2O3,0.0
CoCu2SiS4,0.0
CoCu2Sn3S8,0.0
CoCu2SnS4,0.0
CoCu2SnSe4,0.0
CoCu2TeO6,0.0
CoCu3(PO4)4,0.0
CoCu3HgSe4,0.0
CoCuCO5,0.0671999999999997
CoCuH18N6Cl5,0.4956
CoCuH28(SO11)2,0.7518
CoCuNiS4,0.0
CoCuO2,0.06450000000000067
CoCuP2O7,0.0
CoCuS4,0.0
CoF2,2.2721
CoF3,1.5746
CoF3,0.16120000000000023
CoF3,1.6435
CoF3,1.6382
CoF3,0.22530000000000028
CoF3,0.0
CoF4,1.6139999999999999
CoGe,0.0
CoGe2,0.0
CoGeN2,0.0
CoGeO3,0.0
CoGeO3,1.5622999999999996
CoGeTe,0.04699999999999971
CoH,0.0
CoH10C4(N2O3)2,2.7053
CoH10C4(NO2)4,2.3259
CoH10SeO9,0.0
CoH12(BrO3)2,2.853
CoH12(BrO6)2,3.5522
CoH12(BrO7)2,2.1314
CoH12(ClO3)2,3.0715
CoH12C2(Br2N)2,1.0579
CoH12C2(I2N)2,0.9541999999999999
CoH12C2(NCl2)2,1.155
CoH12CN5O6,2.8449999999999998
CoH12SO10,2.6673
CoH12SO10,2.1010999999999997
CoH13C2N4O9,2.8847000000000005
CoH14C3NCl3O2,2.6521
CoH14SeN5O7,1.9253999999999998
CoH15Br2(N3O)2,2.159
CoH15Br2(N3O)2,2.803
CoH15N6(ClO)2,2.6094999999999997
CoH15N6(ClO)2,3.1259
CoH15Pd(NCl)5,1.6232
CoH16C3N8O7,2.7347
CoH16C4(NCl2)2,0.9515
CoH16C4S4(N4Cl)2,0.0
CoH17C(NO)8,0.939
CoH17S2N5ClO4,1.5025
CoH18C4N8(ClO)4,3.0187
CoH18CN6ClO3,2.3067
CoH18N6(ClO)3,3.2102
CoH18S2Br(N3O2)2,0.0
CoH19S3N5O11,2.5208
CoH2(CO2)2,2.1843
CoH20C4(N5O6)2,2.616
CoH20IN6(ClO2)2,3.4728
CoH20PtC4(NO3)4,3.026
CoH20S2(NO7)2,0.47409999999999997
CoH20S2N6ClO4,2.5831
CoH20Se2(NO7)2,2.7533999999999996
CoH21C2N6Cl2O5,0.5487
CoH22C3(N3O4)2,3.1475999999999997
CoH24C2S2(N3O7)2,1.879
CoH24C6Br2(N2O3)2,2.5201000000000002
CoH2CO3,0.0
CoH2Cl2O,0.8128000000000001
CoH2PbN3O8,2.5054
CoH2SO5,1.172
CoH2SeO4,1.6176000000000001
CoH2SeO4,1.8417999999999999
CoH2SeO5,1.6716
CoH3,0.0
CoH32C8S4(NO5)2,2.5972
CoH4(BrO)2,0.666
CoH4(CO3)2,1.96
CoH4(ClO)2,2.573
CoH4(NO4)2,1.6829999999999998
CoH40C10Br2(N2O)10,3.218
CoH4S(NO2)2,1.8879
CoH4SeO5,3.0003
CoH4SeO5,2.6538
CoH4SeO5,2.5934
CoH4SeO5,2.5067
CoH5CN(ClO)2,1.7077
CoH5SeClO5,2.7343
CoH6(CO3)2,2.537
CoH6(CO3)2,2.6252
CoH6(NCl)2,0.2772
CoH6(NCl)2,0.23519999999999985
CoH6(SeO4)2,2.3278999999999996
CoH7C3NO6,1.9592999999999998
CoH7C3NO6,1.0447000000000002
CoH8(BrO2)2,2.1987
CoH8(CO2)4,1.6046
CoH8(CO4)2,2.2106
CoH8(CO5)2,0.4276
CoH8(ClO2)2,3.2609
CoH8(IO5)2,0.5080999999999998
CoH8(IO5)2,2.8526999999999996
CoH8(SO6)2,0.022199999999999998
CoH8N2(OF2)2,3.1919000000000004
CoH8S2(NO2)4,0.9827000000000001
CoH8SO8,3.242
CoH8Se2(ClO4)2,1.8891999999999998
CoH9(CN2)3,2.8895
CoH9C4(NO2)3,1.4646
CoH9C4NO6,2.7446
CoHCO4,0.16670000000000007
CoHO2,0.3367
CoHO2,0.2849999999999997
CoHO2,0.0
CoHO2,0.45740000000000003
CoHgH18Br4N6Cl,2.2194
CoI2,0.0
CoIr,0.0
CoMo,0.0
CoMo4O15,0.0
CoMoH24N6ClO7,3.4214
CoMoH2SeO7,0.05279999999999996
CoMoO4,0.0
CoMoP,0.0
CoMoP2,0.0
CoN,0.0
CoNi,0.0
CoNi(AsS)2,0.0
CoNi(PO3)4,3.2203000000000004
CoNi(PO4)2,0.0
CoNi(PS3)2,0.0
CoNi(SbS)2,0.0
CoNi2(PO4)2,2.8633
CoNi3,0.0
CoNi5N4,0.0
CoNi5S8,0.0
CoNiAs,0.0
CoNiAs2,0.0
CoNiAs4,0.0
CoNiGe,0.0
CoNiH24(SO10)2,4.5884
CoNiN,0.0
CoNiO3,0.0
CoNiO3,0.7645
CoNiO3,0.9607000000000001
CoNiP,0.0
CoNiP4(H8O5)4,2.9800000000000004
CoNiPt2,0.0
CoNiS4,0.0
CoNiSb6,0.0
CoNiSe2,0.0
CoNiSe4,0.0
CoNiSn,0.0
CoNiTe2,0.0
CoNiTe4,0.0
CoO,0.0
CoO,0.7120000000000002
CoO,0.5880000000000001
CoO2,0.0
CoO2,1.2544
CoO2,0.8384999999999999
CoO2,0.9448