formula,band_gap
Ba25(Bi5O18)3,0.0
Ba2Ag8S7,0.9648999999999996
Ba2AgBi,0.05810000000000004
Ba2AgIO6,0.12660000000000027
Ba2AgSb,0.20719999999999983
Ba2AlCo2F11,3.0809
Ba2AlCr2F11,3.1102000000000003
Ba2AlCu2F11,0.5741999999999999
Ba2AlCuF9,0.14619999999999989
Ba2AlFe2F11,3.8605
Ba2AlFe3O7,1.2784
Ba2AlGa3,0.0
Ba2AlH7,2.96
Ba2AlIn3,0.0
Ba2AlInO5,2.0183
Ba2AlNi2F11,4.2505
Ba2AlSn2F11,4.128699999999999
Ba2AlTlCo2O7,0.031700000000000284
Ba2AlV2F11,2.4566
Ba2AlZnF9,5.658799999999999
Ba2As,0.0
Ba2As2O7,3.335
Ba2As2S5,1.3727
Ba2As2Se5,1.0236999999999998
Ba2As6O11,3.1948
Ba2As6O11,3.1679000000000004
Ba2AsAu,0.5211000000000001
Ba2B10O17,5.6719
Ba2B11H7O22,5.657
Ba2B2AsH3F18,5.0476
Ba2B2O5,3.8041
Ba2B2O5,3.6926999999999994
Ba2B2O5,3.9978
Ba2B2O5,3.8166
Ba2B4Se13,1.3329999999999997
Ba2B5BrO9,5.3458
Ba2B5ClO9,5.2417
Ba2B5HO10,4.787400000000001
Ba2B5O11,0.011900000000000022
Ba2B6H4O13,5.2372
Ba2B6PbO12,4.233700000000001
Ba2BN2Cl,2.7508
Ba2Bi,0.0
Ba2Bi2F11,0.13930000000000003
Ba2Bi2O5,2.0128999999999997
Ba2Bi2Se3O2,1.4192999999999998
Ba2Bi3,0.0
Ba2Bi3O7,0.0
Ba2BiAu,0.4227999999999996
Ba2BiIrO6,0.0
Ba2BiRuO6,0.0
Ba2BiSbO6,1.7228000000000003
Ba2BiSbO6,1.7745999999999995
Ba2BiSbO6,1.9752
Ba2BiSbO6,1.6438999999999995
Ba2BiWO6,0.0
Ba2BiWO6,1.9603999999999995
Ba2Br2O,3.2683
Ba2BrN,1.1377000000000002
Ba2C4O9,2.4048
Ba2Ca(BO2)6,4.9616
Ba2Ca(BO3)2,4.080500000000001
Ba2Ca(PO4)4,0.012400000000000022
Ba2Ca(PdO2)3,1.4866000000000001
Ba2Ca(PdO2)3,0.0
Ba2Ca2Cu3HgO8,0.0
Ba2Ca2EuTi3(CuO7)2,0.0
Ba2Ca2Mn3Tl2O10,0.0
Ba2Ca2NdTi2(CuO6)2,0.0
Ba2Ca2TbTi3(CuO7)2,0.0
Ba2Ca2Tl2Co3O10,0.0
Ba2Ca2Tl2Cu3O10,0.0
Ba2Ca2Tl2Fe3O10,0.0
Ba2Ca2Tl2Ni3O10,0.0
Ba2Ca2Zn5Fe3O14,0.0
Ba2Ca3Cu4HgO10,0.0
Ba2Ca3Mn4Tl2O12,0.0
Ba2Ca3Tl2(CoO3)4,0.0
Ba2Ca3Tl2(CuO3)4,0.0
Ba2Ca3Tl2(FeO3)4,0.0
Ba2Ca3Tl2(NiO3)4,0.0
Ba2Ca3TlCu4O11,0.0
Ba2Ca4TlCu5O13,0.0
Ba2Ca7I18,3.3846
Ba2CaBiO6,0.0
Ba2CaCeGd2Ti2(CuO7)2,0.0
Ba2CaCo2CuF14,0.3508
Ba2CaCr2CuF14,0.0
Ba2CaCr2F14,0.9289999999999999
Ba2CaCrO6,0.6019999999999999
Ba2CaCu2HgO6,0.0
Ba2CaCu2MoO8,0.0
Ba2CaCu3F14,0.0
Ba2CaCuAg2F14,0.0
Ba2CaCuBi2F14,4.2989999999999995
Ba2CaCuMo2F14,4.4818
Ba2CaCuNi2F14,0.0
Ba2CaCuSb2F14,4.1268
Ba2CaCuSn2F14,0.0
Ba2CaEr3(NiO5)2,0.2859999999999996
Ba2CaEu2Ti3(CuO7)2,0.0
Ba2CaFe2CoF14,2.6655
Ba2CaFe2CuF14,2.8937
Ba2CaGa2CuF14,0.9278
Ba2CaI6,3.4758
Ba2CaI6,2.7959
Ba2CaI6,3.6354
Ba2CaI6,3.5732
Ba2CaI6,3.2918000000000003
Ba2CaI6,3.3042000000000002
Ba2CaI6,3.8265000000000002
Ba2CaI6,3.8212
Ba2CaI6,3.4802000000000004
Ba2CaI6,3.551
Ba2CaI6,3.986
Ba2CaIrO6,0.0
Ba2CaMgAl2F14,7.1836
Ba2CaMn2CuF14,0.7884999999999999
Ba2CaMnFe2F14,2.1519000000000004
Ba2CaMnV2F14,1.2483
Ba2CaMoN4,2.4126999999999996
Ba2CaMoO6,2.258
Ba2CaN2,0.23110000000000008
Ba2CaN2,0.0
Ba2CaNbO6,0.0
Ba2CaOsO6,0.0
Ba2CaP4(H3O8)2,5.4657
Ba2CaReO6,0.0
Ba2CaSeO6,2.01
Ba2CaSi4(BO7)2,4.8764
Ba2CaSm2Ti3(CuO7)2,0.0
Ba2CaTb2Ti3(CuO7)2,0.4236000000000004
Ba2CaTeO6,2.9976
Ba2CaTi2CuF14,1.0044
Ba2CaTl2(CuO4)2,0.0
Ba2CaTlCu2O7,0.0
Ba2CaUO6,2.1948
Ba2CaV2(P2O9)2,1.9504000000000001
Ba2CaV2(Si2O7)2,2.0222
Ba2CaV2(Si2O7)2,1.7710999999999997
Ba2CaV2(Si2O7)2,1.0217999999999998
Ba2CaV2CoF14,2.5605
Ba2CaV2CuF14,0.1441
Ba2CaV2FeF14,1.0213999999999999
Ba2CaWN4,1.8491
Ba2CaWO6,3.191
Ba2CaWO6,3.183
Ba2CaWO6,3.2912
Ba2CaWO6,3.2693
Ba2CaY(Co4O7)2,0.54
Ba2CaY2(Fe2O5)2,1.2261999999999995
Ba2Cd,0.0
Ba2Cd(BO2)6,4.3316
Ba2Cd(BO3)2,2.8851000000000004
Ba2Cd2As3,0.0
Ba2Cd2Sb3,0.0
Ba2Cd3Bi4,0.0
Ba2CdAs2,0.39029999999999987
Ba2CdGe10,0.05989999999999984
Ba2CdGe2O7,2.9629000000000003
Ba2CdHg,0.0
Ba2CdIn,0.0
Ba2CdMoO6,2.5376000000000003
Ba2CdN2,0.47909999999999986
Ba2CdOsO6,0.0
Ba2CdP3O11,0.0
Ba2CdP4(H3O8)2,4.4355
Ba2CdPb,0.0
Ba2CdReO6,0.0
Ba2CdS3,2.0892
Ba2CdSe3,1.5747999999999998
Ba2CdSn,0.0
Ba2CdTe3,1.4020000000000001
Ba2Ce2O5,0.0
Ba2Ce2Ti2Fe(Si4O13)2,0.2190000000000003
Ba2Ce3Si3O12F,0.2032000000000007
Ba2CeBiO6,0.0
Ba2CeC3O9F,0.0766
Ba2CeCrO6,0.0
Ba2CeHfO6,2.2198
Ba2CeHfO6,2.1719000000000004
Ba2CeNbO6,0.0
Ba2CePaO6,0.016199999999999548
Ba2CePbO6,2.3054
Ba2CePrO6,0.0
Ba2CePtO6,1.4203999999999999
Ba2CePuO6,0.21919999999999984
Ba2CeSnO6,2.1136999999999997
Ba2CeSnO6,2.1443999999999996
Ba2CeTaO6,0.0
Ba2CeVO6,0.0
Ba2CeWO6,0.0
Ba2CeZrO6,2.3379
Ba2CeZrO6,2.5683
Ba2CeZrO6,2.2933
Ba2CeZrO6,2.2585
Ba2ClF3,5.7361
Ba2Co(BO2)6,0.0
Ba2Co(PO4)2,1.4643
Ba2Co2ClF7,2.4195
Ba2Co2F11,0.0
Ba2Co2O5,0.0
Ba2Co4BrO7,0.0
Ba2Co4ClO7,0.0
Ba2Co9O14,0.0
Ba2CoAg2(SeO)2,0.0
Ba2CoC2(O3F)2,3.066
Ba2CoCl6,0.24599999999999977
Ba2CoCu2(SO)2,0.0
Ba2CoF6,0.0
Ba2CoGe2O7,2.1240000000000006
Ba2CoMoO6,0.0
Ba2CoMoO6,1.274
Ba2CoN2,0.0
Ba2CoNiS4,0.0
Ba2CoO4,0.31790000000000007
Ba2CoO4,0.3016000000000001
Ba2CoReO6,0.19819999999999993
Ba2CoRuO6,0.0
Ba2CoS3,0.0
Ba2CoSe2(ClO3)2,1.448
Ba2CoSi2O7,2.6655999999999995
Ba2CoSi2O7,1.7828
Ba2CoWO6,1.8426999999999998
Ba2CoWO6,0.0
Ba2Cr2CuF14,0.4807
Ba2Cr2F11,0.22310000000000008
Ba2Cr7O14,0.0026000000000001577
Ba2CrBiO6,0.03929999999999989
Ba2CrBiO6,0.0
Ba2CrF6,2.4321
Ba2CrMoO6,0.0
Ba2CrN3,0.0
Ba2CrO4,0.5412000000000003
Ba2CrO4,1.8318999999999996
Ba2CrSnO6,0.0
Ba2Cu(BO3)2,2.1332999999999998
Ba2Cu(C3O8)2,0.04059999999999997
Ba2Cu(PO3)6,1.1062
Ba2Cu(PO4)2,0.0
Ba2Cu(SBr)2,0.0
Ba2Cu(SCl)2,0.0
Ba2Cu2HgO6,0.0
Ba2Cu2O5,0.0
Ba2Cu2O5,0.7701
Ba2Cu2Te2P2O13,0.0
Ba2Cu2Te4Br2O11,0.43240000000000034
Ba2Cu3(BrO2)2,0.0
Ba2Cu3(ClO2)2,0.0
Ba2Cu3BrClO4,0.0
Ba2Cu3P4,0.0
Ba2Cu4As5H3O20,0.6555
Ba2Cu4Te4Cl4O11,0.0
Ba2Cu5F14,0.0
Ba2Cu7(AsO4)6,0.23980000000000024
Ba2CuAg3(SnS4)2,0.8773999999999997
Ba2CuBrO2,2.3072999999999997
Ba2CuC(NO)2,0.0
Ba2CuClO2,2.3029
Ba2CuF6,0.6278
Ba2CuF6,0.0
Ba2CuGe2O7,0.19629999999999992
Ba2CuH6,0.0
Ba2CuHgO4,0.0
Ba2CuIO2,1.9891999999999999
Ba2CuMo2F14,0.9322999999999999
Ba2CuN2,0.0
Ba2CuO3,0.0
Ba2CuOsO6,0.0
Ba2CuP2O9,0.0
Ba2CuSO2,0.6408
Ba2CuSeO2,0.49470000000000036
Ba2CuSi2O7,0.18310000000000004
Ba2CuSi2O7,0.07959999999999967
Ba2CuSn2F14,1.3161
Ba2CuTeO2,0.3494999999999999
Ba2CuTeO6,0.0
Ba2CuWO6,0.0
Ba2Dy(CuO2)4,0.0
Ba2Dy2Co4O11,0.0
Ba2DyBiO6,1.7330999999999999
Ba2DyBiO6,1.7349999999999999
Ba2DyCl7,4.8933
Ba2DyCoCu2O7,0.0
Ba2DyCu2HgO7,0.0
Ba2DyCu3O7,0.0
Ba2DyGaSe5,1.6672
Ba2DyGaTe5,0.41179999999999994
Ba2DyInSe5,1.1264000000000003
Ba2DyInTe5,0.7071000000000005
Ba2DyMoO6,0.0
Ba2DyNbO6,2.8514
Ba2DyNbO6,2.8705
Ba2DyPaO6,3.4627999999999997
Ba2DyReO6,0.0
Ba2DySbO6,3.4745
Ba2DySbO6,3.4688
Ba2DyTaO6,3.3837
Ba2DyUO6,0.8682999999999996
Ba2DyV3O11,3.4698
Ba2DyWO6,0.0
Ba2Er(CuO2)4,0.0
Ba2Er2CuPtO8,0.2711000000000001
Ba2Er2Zn8O13,1.392
Ba2ErCl7,4.9184
Ba2ErCoCu2O7,0.0
Ba2ErCu3O7,0.0
Ba2ErCuNi2O7,0.0
Ba2ErGaSe5,1.6730999999999998
Ba2ErGaTe5,0.41890000000000027
Ba2ErInSe5,1.1854
Ba2ErInTe5,0.7491000000000003
Ba2ErMoO6,0.0
Ba2ErNbO6,2.8541999999999996
Ba2ErPaO6,3.4587
Ba2ErReO6,0.0
Ba2ErRuO6,0.07160000000000011
Ba2ErSbO6,3.3776
Ba2ErTaO6,3.3933999999999997
Ba2ErUO6,0.8790000000000004
Ba2ErV3O11,3.4323
Ba2ErZn2CuO7,0.0
Ba2Eu(CuO2)4,0.0
Ba2Eu2Ti2Cu2O11,0.0
Ba2Eu2ZnPtO8,0.0
Ba2Eu3Mn2(CuO6)2,0.0
Ba2Eu3Si7,0.0
Ba2EuBiO6,0.0
Ba2EuCl7,0.0
Ba2EuCoCu2O7,0.0
Ba2EuCrO6,0.0
Ba2EuCu2HgO7,0.0
Ba2EuCu3O7,0.0
Ba2EuMgNbO6,0.1968999999999994
Ba2EuMoO6,0.047900000000000276
Ba2EuNbO6,0.0
Ba2EuReO6,0.0
Ba2EuRuO6,0.0
Ba2EuSbO6,0.0
Ba2EuTa3Ti2O15,0.0
Ba2EuTaO6,0.0
Ba2EuV3O11,0.035099999999999965
Ba2EuVO6,0.0
Ba2EuWO6,0.1504999999999992
Ba2Fe2ClF7,3.653
Ba2Fe2CuF14,0.0
Ba2Fe2O5,0.8776000000000002
Ba2Fe2O5,0.0
Ba2Fe2O5,1.4173
Ba2Fe2S2OF2,1.8181000000000003
Ba2Fe2Se2OF2,1.8099999999999996
Ba2Fe3(P2O9)2,0.001000000000000112
Ba2Fe3F10,3.4795
Ba2Fe3O8,0.0
Ba2Fe3P6HO22,2.1491999999999996
Ba2Fe4AsP3,0.0
Ba2Fe4Bi2O11,0.0
Ba2Fe5BiPb2O13,1.4128000000000007
Ba2Fe6O11,1.6653
Ba2Fe8Ni3(SbO11)2,0.6247999999999996
Ba2FeBiS5,0.625
Ba2FeBrO3,1.4511000000000003
Ba2FeCoClF7,2.1117999999999997
Ba2FeCoF9,2.2110000000000003
Ba2FeGe2O7,0.0
Ba2FeMoO6,0.8640999999999996
Ba2FeMoO6,0.7715000000000001
Ba2FeMoO6,0.9037000000000002
Ba2FeMoO6,0.0
Ba2FeN2,0.19579999999999975
Ba2FeO4,0.0
Ba2FeP4HO14,2.4765
Ba2FeReO6,0.0
Ba2FeSbS5,0.5309000000000004
Ba2FeWO6,2.5062
Ba2FeWO6,0.0
Ba2Ga11BiO20,2.9869999999999997
Ba2Ga2O5,0.0
Ba2Ga2S5,2.7747
Ba2Ga6O11,2.6626000000000003
Ba2Ga7Ag,0.0
Ba2GaAsSe5,1.8702999999999999
Ba2GaBiS5,2.391
Ba2GaBiSe5,1.7506
Ba2GaBiTe5,1.0651999999999995
Ba2GaGeN,0.0
Ba2GaP4HO14,5.0374
Ba2GaS4,1.8917000000000002
Ba2GaSbS5,2.3966999999999996
Ba2GaSbSe5,1.8066999999999998
Ba2GaSbTe5,0.9727999999999999
Ba2GaSe4,1.0042
Ba2Gd(CuO2)4,0.0
Ba2Gd2Co4O11,0.0
Ba2Gd2Si4O13,0.12249999999999961
Ba2GdB2ClO6,0.0
Ba2GdBiO6,1.5940999999999996
Ba2GdBiO6,1.6632000000000002
Ba2GdC2(O2F)3,3.0692
Ba2GdCl7,1.5614999999999997
Ba2GdCoCu2O7,0.0
Ba2GdCu2(HgO4)2,0.0
Ba2GdCu2HgO7,0.0
Ba2GdCu3O7,0.0
Ba2GdGaSe5,1.3594000000000002
Ba2GdGaTe5,0.7637
Ba2GdMoO6,0.0
Ba2GdMoO6,0.9083000000000001
Ba2GdNbO6,2.6643999999999997
Ba2GdNbO6,0.0
Ba2GdPaO6,3.1597
Ba2GdReO6,0.0
Ba2GdRuO6,0.14670000000000005
Ba2GdSbO6,3.4853000000000005
Ba2GdSbO6,3.4839
Ba2GdTaO6,3.2148000000000003
Ba2GdTaO6,3.3075999999999994
Ba2GdUO6,0.8429000000000002
Ba2GdV3O11,3.143
Ba2GdWO6,0.0
Ba2Ge,0.0
Ba2Ge(Sb2S5)2,1.3986000000000005
Ba2Ge(TeSe)2,0.8477000000000001
Ba2Ge2Se5,1.2918
Ba2Ge2Te5,0.6240999999999999
Ba2Ge3,0.0
Ba2Ge4Pd5,0.0
Ba2Ge5Ir4,0.2012999999999998
Ba2GeAs2,0.5785999999999998
Ba2GeO4,2.9627
Ba2GeO4,4.0976
Ba2GeO4,3.238
Ba2GeO4,3.7083000000000004
Ba2GeO4,3.7979000000000003
Ba2GeP2,0.6808999999999998
Ba2GeS4,2.2853
Ba2GeSe4,1.4121000000000001
Ba2H14C12S4N4O15,2.6437999999999997
Ba2H14C4O15,3.5538
Ba2H14Cl4O15,2.7437
Ba2H20Ru2Cl10O11,0.6929000000000001
Ba2H2C4O9,3.3183
Ba2H2Pd(S5O17)2,1.5874
Ba2H3I,2.2391
Ba2H4Pd,1.7035
Ba2H6Os,1.9655
Ba2H6Pt,1.7589000000000001
Ba2H6Ru,1.8699000000000001
Ba2H8PtO8,2.4355
Ba2HRu3O10,0.0
Ba2Hf7O16,4.0367
Ba2HfO4,3.4370000000000003
Ba2HfS4,0.8648000000000002
Ba2HfUO6,0.18789999999999996
Ba2Hg,0.0
Ba2Hg3(PdO2)7,0.0
Ba2HgPb,0.0
Ba2HgS3,1.3589999999999998
Ba2HgS5,1.6693000000000002
Ba2Ho(CuO2)3,0.0
Ba2Ho(CuO2)4,0.0
Ba2Ho2Co4O11,0.0
Ba2Ho2CuPtO8,0.2622
Ba2Ho2Fe(CoO4)3,0.0
Ba2HoB2ClO6,4.0845
Ba2HoCl7,4.9186
Ba2HoCoCu2O7,0.0
Ba2HoCu3O7,0.0
Ba2HoMoO6,0.0
Ba2HoNbO6,2.8516
Ba2HoPaO6,3.4556
Ba2HoReO6,0.0
Ba2HoRuO6,0.07600000000000007
Ba2HoSbO6,3.4155
Ba2HoTaO6,3.4479999999999995
Ba2HoTaO6,3.3781999999999996
Ba2HoUO6,0.8731999999999998
Ba2HoV3O11,3.4518
Ba2I2O,3.0440999999999994
Ba2IBrF2,4.3552
Ba2In,0.0
Ba2In13Ir4,0.0
Ba2In2(PO4)3,0.0
Ba2In2O5,0.0
Ba2In2O5,0.48199999999999976
Ba2In2O5,0.919
Ba2In2O5,1.5654999999999997
Ba2In2O5,0.4077000000000002
Ba2In2S5,1.9866000000000001
Ba2In2Se5,1.3944999999999999
Ba2In2Si3SO10,2.8920000000000003
Ba2In3Au,0.0
Ba2InAgS4,1.7053999999999996
Ba2InBiO6,0.0
Ba2InBiO6,0.20800000000000018
Ba2InBiS5,1.4528999999999996
Ba2InBiSe5,1.061
Ba2InBrO3,1.8236999999999997
Ba2InClO3,1.9144999999999999
Ba2InCuO4,1.1107999999999998
Ba2InGaO5,1.4144999999999999
Ba2InHg,0.0
Ba2InIrO6,0.0
Ba2InO3F,2.0466999999999995
Ba2InOsO6,0.42240000000000055
Ba2InReO6,0.0
Ba2InRuO6,0.3628
Ba2InS4,2.1883
Ba2InSbO6,0.5239999999999996
Ba2InSbSe5,0.7680000000000002
Ba2InSbTe5,0.7145999999999995
Ba2IrO4,0.0
Ba2La(CuO2)3,0.0
Ba2La(FeO3)3,0.0
Ba2La2Fe2Cu2O11,0.0
Ba2La2Mg2TiWO12,0.0
Ba2La2MgMn(WO6)2,2.2645999999999997
Ba2La2MgTi3O12,2.3411999999999997
Ba2La2MgTi3O12,1.9234
Ba2La2Mn(WO6)2,1.5055000000000005
Ba2La2Mn4O11,0.08729999999999993
Ba2La2Ni(WO6)2,3.3023999999999996
Ba2La2O5,2.4337000000000004
Ba2La2Ti2Cu2O11,0.46140000000000025
Ba2La2TlCu2O9,0.0
Ba2La2Zn(WO6)2,2.7794
Ba2La3Nd(CuO5)2,0.7635000000000005
Ba2La3Si3O12F,4.109400000000001
Ba2La3Ti2Cr3O15,1.4871999999999996
Ba2La3Ti2Nb2O15,0.0
Ba2La3Ti3NbO15,2.7971000000000004
Ba2La4CuPtO10,0.8681999999999999
Ba2La4Mn5SnO18,0.0
Ba2La4Ti5O18,2.3756000000000004
Ba2La6Mg4Ti3WO24,1.9881000000000002
Ba2LaAg5S6,1.4647000000000006
Ba2LaBiO6,1.8277999999999999
Ba2LaBiO6,1.9851999999999999
Ba2LaBiO6,1.7696999999999994
Ba2LaC3O9F,3.9314
Ba2LaCl7,4.321
Ba2LaCl7,3.4375999999999998
Ba2LaCl7,4.1371
Ba2LaCl7,4.2082
Ba2LaCl7,4.4004
Ba2LaCoCu2O7,0.0
Ba2LaCrO6,0.47829999999999995
Ba2LaCrO6,0.0
Ba2LaCu2HgO7,0.0
Ba2LaCu3O7,0.0
Ba2LaCu3O8,0.0
Ba2LaI7,1.6953999999999998
Ba2LaI7,2.8964
Ba2LaI7,2.3695
Ba2LaI7,2.3171
Ba2LaIrO6,0.0
Ba2LaMgSbO6,2.818
Ba2LaMn2O7,0.0
Ba2LaMn2O7,0.9398
Ba2LaNb(CuO4)2,0.23639999999999972
Ba2LaNb5O15,0.0
Ba2LaNbO6,2.9716
Ba2LaNbO6,2.9563
Ba2LaNbO6,3.0639
Ba2LaPaO6,3.3736
Ba2LaPuO6,0.0
Ba2LaReO6,0.0
Ba2LaRuO6,0.24369999999999958
Ba2LaRuO6,0.21960000000000024
Ba2LaSbO6,3.8811999999999998
Ba2LaSbO6,3.8802999999999996
Ba2LaSbO6,3.8961
Ba2LaSbO6,3.8497000000000003
Ba2LaTa(CuO4)2,0.0
Ba2LaTaO6,3.6212999999999997
Ba2LaTaO6,3.6554999999999995
Ba2LaTaO6,3.6314999999999995
Ba2LaTlCu2O7,0.0
Ba2LaUO6,0.8498000000000001
Ba2LaV3O11,3.5103
Ba2LaVO6,1.7140000000000004
Ba2LaVO6,1.7202000000000002
Ba2LaWO6,0.0
Ba2LaWO6,1.9219
Ba2Li(BO2)5,4.951700000000001
Ba2Li(CuO2)3,0.0
Ba2Li(NiO3)2,0.4912000000000001
Ba2Li(NiO3)2,0.0
Ba2Li(NiO3)2,0.41859999999999964
Ba2Li3(PO3)7,5.451099999999999
Ba2Li3Ho3(WO4)8,3.2447
Ba2Li3La3(MoO4)8,2.509
Ba2Li3NbN4,2.2753999999999994
Ba2Li3TaN4,2.2751
Ba2Li3Y3(MoO4)8,2.2428
Ba2Li3Y3(WO4)8,2.8751000000000007
Ba2LiAl(CN2)4,4.1281
Ba2LiB10O19,0.0363
Ba2LiEu(CuO2)4,0.0
Ba2LiFe2N3,0.0
Ba2LiGe3,0.09699999999999998
Ba2LiHoRuO6,0.0
Ba2LiIO6,2.0756000000000006
Ba2LiLaCu3O7,0.0
Ba2LiLaIrO6,0.0
Ba2LiMn2(P2O7)2,0.0
Ba2LiMn2(P2O7)2,0.6181000000000001
Ba2LiMn2(P2O7)2,0.16790000000000038
Ba2LiMn2O6,0.0
Ba2LiMn2O6,0.7942
Ba2LiMn2O6,1.0269
Ba2LiN,0.0
Ba2LiOsO6,0.0
Ba2LiReN4,1.7902
Ba2LiReO6,1.8198000000000003
Ba2LiSi3,0.09229999999999983
Ba2LiSmCoCu2O7,0.0
Ba2LiTbIrO6,0.0
Ba2LiTbSnO6,3.3137000000000003
Ba2LiTbSnO6,3.3960000000000004
Ba2LiTbSnO6,3.1105
Ba2LiTeO6,0.0
Ba2LiTi11O24,0.0
Ba2LiTmCu3O7,0.0
Ba2LiUO6,0.0
Ba2LiV2(Si2O7)2,0.9260000000000002
Ba2LiV2(Si2O7)2,0.6856
Ba2LiV2(Si2O7)2,1.4775999999999998
Ba2LiV2(Si2O7)2,0.2716000000000003
Ba2LiV2(Si2O7)2,1.5163000000000002
Ba2LiVP2O9,1.8933999999999997
Ba2LiY2(Fe2O5)2,1.7834000000000003
Ba2LiY2(Fe2O5)2,1.0886999999999998
Ba2LiY2(Fe2O5)2,0.7321999999999997
Ba2LiY2(Fe2O5)2,1.4756999999999998
Ba2LiY2(Fe2O5)2,0.3786000000000005
Ba2Lu(CuO2)3,0.0
Ba2Lu2CuPtO8,0.2822999999999998
Ba2LuB2ClO6,2.1046
Ba2LuBiO6,1.4518
Ba2LuBiO6,1.4061000000000003
Ba2LuCu3O7,0.0
Ba2LuIrO6,0.0
Ba2LuMoO6,0.0
Ba2LuNbO6,2.8478999999999997
Ba2LuReO6,0.0
Ba2LuRuO6,0.055600000000000094
Ba2LuSbO6,3.2383
Ba2LuTaO6,3.4088999999999996
Ba2LuUO6,2.0388
Ba2Mg(BO2)6,4.9106000000000005
Ba2Mg(BO3)2,4.532399999999999
Ba2Mg(BiO3)2,2.264
Ba2Mg(BiO3)2,2.3553
Ba2Mg(BiO3)2,2.2341
Ba2Mg(CoO3)2,0.8877000000000002
Ba2Mg(GeIr)4,0.0
Ba2Mg(MoO4)2,1.4981
Ba2Mg(NiO3)2,0.0
Ba2Mg(NiO3)2,0.6219999999999999
Ba2Mg(PO4)2,4.6678
Ba2Mg(TiS3)2,0.0
Ba2Mg(VS3)2,0.0
Ba2Mg(VS3)2,0.06709999999999994
Ba2Mg(WO4)2,1.7421
Ba2Mg(WO4)2,0.9581000000000004
Ba2Mg17,0.0
Ba2Mg2Mn3Tl2O10,0.0
Ba2Mg2MnF10,4.4494
Ba2Mg2Tl2Co3O10,0.0
Ba2Mg2Tl2Cu3O10,0.0
Ba2Mg2Tl2Ni3O10,0.0
Ba2Mg3F10,6.8919999999999995
Ba2Mg3H10,3.0265000000000004
Ba2Mg3Si4,0.0
Ba2Mg3Tl2(CuO3)4,0.0
Ba2MgCo2CuF14,0.018000000000000016
Ba2MgCr2CuF14,0.9550000000000001
Ba2MgCu3F14,0.0
Ba2MgCuAg2F14,0.1195
Ba2MgCuBi2F14,1.3099999999999998
Ba2MgCuMo2F14,4.550199999999999
Ba2MgCuNi2F14,0.0
Ba2MgCuSb2F14,0.8667
Ba2MgCuSn2F14,0.0
Ba2MgFe2B2(P2O9)2,3.5396
Ba2MgFe2B2(P2O9)2,3.8915999999999995
Ba2MgFe2B2(P2O9)2,3.5197
Ba2MgFe2CuF14,3.1943
Ba2MgFeMoO6,0.8445000000000005
Ba2MgGe2O7,3.6558
Ba2MgH6,2.8864
Ba2MgIn,0.0
Ba2MgMn2(P2O7)2,1.9981
Ba2MgMn2CuF14,1.0008
Ba2MgMn2O6,1.1818
Ba2MgMn2O6,1.8439
Ba2MgMn3Tl2O10,0.0
AlPS4,2.8338
AlPS4,2.6141
AlPb3,0.0
AlPb3OF9,0.13670000000000027
AlPb3OF9,1.0399
AlPbF5,5.2623
AlPd,0.0
AlPd2,0.0
AlPd3,0.0
AlPd5,0.0
AlPd5I2,0.0
AlPdO3,0.0
AlPt,0.0
AlPt2,0.0
AlPt3,0.0
AlRe,0.0
AlRe2,0.0
AlReGe,0.11870000000000047
AlReSi,0.04749999999999943
AlRh,0.0
AlRh3,0.0
AlRhO3,1.7659000000000002
AlRu,0.0
AlS2(NCl2)2,1.0461999999999998
AlS2NCl4,2.1062000000000003
AlS2NCl6,1.6801
AlS5N5Cl4,2.2857
AlSBr3N,1.8744
AlSCl3O2,3.9643
AlSCl7,2.4961
AlSNCl3,2.4413
AlSb,0.9179000000000004
AlSb,0.0
AlSb,0.02210000000000001
AlSb,1.2255000000000003
AlSb(WO4)2,1.6134000000000004
AlSb(WO4)2,1.5301999999999998
AlSb2(SeCl2)2,1.122
AlSb2(TeCl2)2,0.7508999999999997
AlSb2Te2BrCl4,0.5731999999999999
AlSb3F15,0.0
AlSb3Pb4O13,1.3571999999999997
AlSb5Se5Cl4,1.3956
AlSbI6,2.2540999999999998
AlSbO3,3.9107000000000003
AlSbO4,1.6178
AlSeBr3N,1.8780999999999999
AlSeBr7,2.1939
AlSeCl7,2.5979
AlSeCl7,0.05410000000000004
AlSeS2N2Cl5,2.5307
AlSi3AgO8,3.0442
AlSi3O8,0.0
AlSi3W2,0.0
AlSi9Ni16,0.0
AlSiAgO4,2.5624000000000002
AlSiCN,3.4135999999999997
AlSiH11C3O,4.9837
AlSiH9C3Cl2O,5.6642
AlSiHO4,5.571899999999999
AlSiMo,0.0
AlSiMo6,0.0
AlSiNi2,0.0
AlSiNi6,0.0
AlSiP3,0.28859999999999975
AlSiPH9C3NCl6,3.5842
AlSiPt6,0.0
AlSiRu2,0.0
AlSiTe3,1.2504
AlSn(WO4)2,1.1757
AlSn(WO4)2,0.16970000000000063
AlSn2P(H3C)8,3.3878000000000004
AlSn3F15,2.7011000000000003
AlSnF5,3.7554
AlSnP(SO6)2,3.1449000000000007
AlSnPH18(C3Cl2)2,5.2635000000000005
AlTc2,0.0
AlTc3,0.0
AlTe(WO4)2,0.0
AlTe(WO4)2,0.3343999999999996
AlTeCl7,3.1496
AlTeCl7,3.2352
AlTeH6C2Br3,3.717
AlTeH6C2Cl3,3.9733
AlTeI7,1.8846
AlTeO4,0.0
AlTl(MoO4)2,3.8702
AlTl(SO4)2,4.9822
AlTl(SeO4)2,3.2568
AlTl2Cu3Se4,0.0
AlTl2F5,4.0684
AlTl2F5,4.0476
AlTl2F5,4.0814
AlTl2F5,4.2238
AlTlBr4,4.0998
AlTlCl4,4.7337
AlTlF4,4.433300000000001
AlTlF4,4.2399000000000004
AlTlF4,4.2492
AlTlI4,3.4463999999999997
AlTlO2,2.1969999999999996
AlTlO3,0.7376999999999994
AlTlS2,2.1718
AlTlSe2,1.7889999999999997
AlTlSe2,0.5872999999999999
AlTlSi3O8,4.586
AlTlSiO4,3.4946999999999995
AlTlSiO4,4.0809999999999995
AlV,0.0
AlV(TeO4)2,2.8360999999999996
AlV(WO4)2,1.7233999999999998
AlV(WO4)2,0.0
AlV2,0.0
AlV2C,0.0
AlV2Fe,0.0
AlV2O4,0.0
AlV2O4,0.03640000000000043
AlV2O4,0.36380000000000035
AlV2O4,0.11869999999999958
AlV2O4,0.1993999999999998
AlV2O4,0.36820000000000075
AlV2O4,0.2716000000000003
AlV2O4,0.26170000000000027
AlV2O4,0.41080000000000005
AlV3,0.0
AlV3O6,0.3843999999999994
AlV4C3,0.0
AlV4N3,0.0
AlV6Ga,0.0
AlV6Ge,0.0
AlV6Sb,0.0
AlV6Sn,0.0
AlV9Au2,0.0
AlVCo2,0.0
AlVCrC,0.0
AlVF5,3.1768
AlVFe2,0.0
AlVFeCo,0.0
AlVMoO7,2.0209
AlVNi2,0.0
AlVO3,1.569
AlVO3,1.6791999999999998
AlVO3,0.0
AlVO3,1.1677
AlVO4,2.8011999999999997
AlVOs2,0.0
AlVRu2,0.0
AlW2C,0.0
AlW3O8,1.9247999999999998
AlW3O8,1.4906999999999995
AlWO4,2.9802999999999997
AlWO4,0.0
AlZn10(B4Rh9)2,0.0
AlZn2Sb(HO)12,2.6138
AlZnB5H16C4(N2O5)2,4.4958
AlZnB5H20C5(NO2)5,4.5107
AlZnB5H21C6(NO2)5,4.6496
AlZnCrS4,0.0
AlZnCu2,0.0
AlZnCu3Se4,0.0
AlZnGaS4,2.7802000000000002
AlZnH10O7F5,0.9899999999999998
AlZnH16N(OF)6,5.195
AlZnH4O2F5,4.558
AlZnH4O2F5,5.0839
AlZnIr2,0.0
AlZnRh2,0.0
Ar,8.5132
Ar,8.489799999999999
As,0.0
As(BrF2)3,1.6272
As(IF2)3,1.3305
As(IF3)2,0.0
As(IF3)2,0.5218
As(S2F3)2,0.0
As(S8I)3,2.0753
As14H6O31,2.2221
As16S17,1.9747
As2(SO4)3,4.5714
As2Cl3OF5,3.0602
As2H2CCl4,3.1959
As2H3CF9,4.2415
As2HPbF13,4.399900000000001
As2Ir,0.8155000000000001
As2Kr3F16,1.149
As2O3,3.4494
As2O3,3.0503
As2O3,3.6287000000000003
As2O3,3.6205999999999996
As2O3,3.3787000000000003
As2O3,3.6306
As2O3,4.0339
As2O3,4.0234000000000005
As2O5,1.3654000000000002
As2O5,1.426
As2O5,1.6284999999999998
As2Os,0.6646999999999998
As2P2S7,2.6386
As2PHBr3F11,3.5140000000000002
As2PHCl3F11,4.5211
As2PHO6,4.0859000000000005
As2Pb(XeF6)3,2.5938
As2Pb14Cl4O17,1.9689
As2Pb2O5,2.6879
As2Pb2S5,1.6038000000000001
As2Pb3O8,3.3141000000000003
As2Pb4S6ICl,1.8290000000000002
As2Pb8O13,2.0589999999999997
As2PbO4,2.8461999999999996
As2PbO6,2.1358
As2PbS4,0.7649999999999997
As2Pd,0.0
As2Pd5,0.0
As2PdO6,0.0
As2Pt,0.07850000000000001
As2Rh,0.2625000000000002
As2Ru,0.44920000000000027
As2S,0.0
As2S2F3,2.3662
As2S2O9,4.0567
As2S2O9,4.0514
As2S3,1.9873
As2S3,2.0989
As2S3(NF6)2,1.9829999999999999
As2SO6,4.417199999999999
As2Se,0.0
As2Se2S(NF6)2,1.9764000000000002
As2Se3,0.6002999999999998
As2Se3,1.4466
As2Se3(NF6)2,2.1114
As2Se3S3(NF3)4,1.5493999999999999
As2SeS2,1.2161
As2W,0.0
As2W2O11,2.7163000000000004
As2WO7,3.0542999999999996
As3(HO2)5,3.0665999999999998
As3H12C4S5N,1.9453
As3H9RhC3(BrO)3,2.0141
As3H9RhC3(ClO)3,2.2471
As3HO6,3.5542
As3HO6,3.0456
As3Ir,0.026799999999999713
As3P3Pb10(ClO12)2,3.1225000000000005
As3Pb2BrO6,3.2587
As3Pb2ClO6,3.393
As3Pb5BrO12,2.9898
As3Pb5ClO12,3.0506
As3Pb5ClO12,3.0286
As3Pb5ClO9,2.6399000000000004
As3Pb5ClO9,2.0202
As3Pb5O12F,3.2963999999999998
As3Pd4Pb,0.0
As3Rh,0.0
As3W2,0.0
As4(Pb3S5)3,1.5756000000000001
As4H24C8S7N2,2.4279