formula,band_gap
K10CoMo7O27,2.401
K10Gd22F79,0.0
K10Ge18WO4,1.7100000000000002
K10Hf3Mo12PbO48,2.7925
K10In5Sb9,0.5520999999999998
K10LiZr6H4O2F35,0.00039999999999995595
K10MgMo7O27,3.7119
K10Mn4Sn4S17,0.0
K10MnMo7O27,2.9633999999999996
K10NbInAs6,0.9145000000000001
K10Th3(P5S18)2,2.1956999999999995
K10Tl7,0.0
K10Zn4Sn4S17,2.1803999999999997
K10Zr3Cd(MoO4)12,2.9541
K10Zr3Mn(MoO4)12,3.1936999999999998
K11(In2Bi3)3,0.03130000000000033
K11B62,0.0
K11Cd2Sb5,0.5584
K11Li4Ta15O45,2.1207000000000003
K11LiMn4O16,1.2347000000000001
K11Mn4O16,0.0
K11Np2H9(S5O22)2,0.5550999999999999
K12Ag4As8CSe20O,0.6591000000000002
K12In2Se9,1.646
K12Mg(Pb2O5)2,0.5606
K12Mg(Pb2O5)2,1.1658000000000002
K12Mo4S11Cl4O5,2.3966000000000003
K12Sn4Au21,0.0
K13Na2W7N19,1.5499
K14(Tl7Cd3)3,0.0
K14Fe4O13,2.2504999999999997
K14In4O13,2.0413
K14P16Pd9O56,1.1907
K14W6N17,1.7321
K14ZnGe16,0.8916
K15Cr7N19,0.6508
K15Mo7N19,1.2845
K15Nd7Zr9(PO4)24,4.1437
K15Os7N19,0.032399999999999984
K15P16Pd9O56,0.007200000000000095
K15Re7N19,0.018400000000000194
K15Si92,0.0
K15W7N19,1.4793
K16Na9(Tl6Cd)3,0.0
K16Tl22Pd,0.0
K16Zr12Se61,1.3747
K17Fe5O16,2.0912
K17In41,0.0
K18Na46Tl31,0.0
K19Na6Tl24Au,0.0
K19Ti3Sb29O88,1.5473
K2(CuTe)5,0.0
K2(FeSe)5,0.0
K2(MoSe6)3,0.8439000000000001
K2(NbBr3)3,1.0786
K2(NbBr3)3,1.0769000000000002
K2(NbCl3)3,1.0867999999999998
K2(NbS2)3,0.0
K2(NbSe2)3,0.0
K2(ReS2)3,1.4695999999999998
K2(ReSe2)3,1.1360999999999999
K2(SO2)3,3.5394
K2(TaS2)3,0.0
K2(TaSe2)3,0.0
K2(TcS2)3,1.032
K2(TcSe2)3,0.8982999999999999
K2(TeO4)3,0.0
K22Nb13In11(PO5)24,2.6685
K23(Sn3Au4)3,0.0
K23Na8(CdIn4)12,0.0
K29NaHg48,0.0
K2Ag,0.0
K2Ag(AsSe2)3,1.2346
K2Ag2GeS4,1.6880000000000002
K2Ag2GeSe4,1.0777999999999999
K2Ag2SnSe4,0.8472000000000002
K2Ag3Sb3S7,1.8381999999999996
K2Ag4Pd3(NO2)12,1.5334
K2Ag4Pt3(NO2)12,1.6828
K2Ag4S3,0.12829999999999986
K2Ag4Se3,0.0
K2Ag6Sn3S10,0.7928000000000002
K2AgAs,1.0719
K2AgAsBr6,0.8026
K2AgAsCl6,1.5190000000000001
K2AgAsF6,2.2292
K2AgAuBr6,0.0
K2AgAuCl6,0.0
K2AgAuF6,0.0
K2AgBi,0.6783000000000001
K2AgBiBr6,1.5765
K2AgBiCl6,2.0583
K2AgBiF6,2.3982
K2AgBiI6,0.8096000000000001
K2AgC3(SN)3,3.085
K2AgF4,0.6126
K2AgF4,0.25339999999999996
K2AgI3,2.5686999999999998
K2AgIrF6,1.5151999999999997
K2AgMoBr6,0.6656
K2AgMoCl6,1.0353
K2AgMoF6,2.5573
K2AgMoI6,0.6873999999999998
K2AgP,1.232
K2AgPdF6,0.0
K2AgRhF6,1.4182000000000001
K2AgRuF6,0.0
K2AgSb,1.1871
K2AgSbBr6,1.1248
K2AgSbCl6,1.6025
K2AgSbF6,2.0454
K2AgSbI6,0.3809999999999998
K2AgSbS4,1.0986999999999998
K2Al11Si13(Ag3O16)3,1.3746
K2Al11Si13(Ag3O16)3,1.2822
K2Al2B2O7,4.5822
K2Al2B2O7,4.5949
K2Al2O3F2,4.0223
K2Al2Sb2O7,3.5034
K2Al2Sb3,0.9634
K2Al2Si2O9,0.5306000000000001
K2Al2Si3O10,4.3747
K2AlAgBr6,1.4617
K2AlAgCl6,2.4737
K2AlAgF6,3.0675
K2AlAuBr6,0.0
K2AlAuCl6,0.8600000000000001
K2AlAuF6,1.3271000000000002
K2AlAuI6,0.0
K2AlCuF6,1.1155
K2AlF5,6.3239
K2AlFeB2P4(HO9)2,2.8099
K2AlH2OF5,5.9924
K2AlHgBr6,0.0
K2AlHgCl6,0.0
K2AlHgF6,0.0
K2AlInBr6,1.7719
K2AlInCl6,2.9257999999999997
K2AlInF6,3.8745000000000003
K2AlInI6,0.8125
K2AlMo3(P2O7)4,0.1513
K2AlPCO7,4.9518
K2AlSO4F3,5.808
K2AlSn(PO4)3,3.6794000000000002
K2AlTlBr6,2.8488
K2AlTlCl6,3.8301000000000003
K2AlTlF6,4.7545
K2AlTlI6,1.5653000000000001
K2As2Pd,0.6457999999999999
K2As2Pt,0.3521000000000001
K2AsAuBr6,0.15180000000000005
K2AsAuCl6,0.21999999999999997
K2AsAuI6,0.0
K2AsAuS4,0.9987999999999999
K2AsH13O10,4.3998
K2AsPCO7,4.0808
K2Au(IO3)5,1.9927
K2Au3,0.0
K2B(PO4)2,0.0
K2B10H6O19,5.7646
K2B2S7,2.5194
K2B2Se3O10,4.1143
K2B2Se7,1.6406
K2B4H8O11,5.2011
K2B4O7,4.821
K2B5H5O11,4.8926
K2B6H2O11,5.3623
K2BAs2HO8,3.7036999999999995
K2Ba(BiO3)3,0.0
K2Ba(FeAs)6,0.0
K2Ba(Ge4O9)2,3.4758000000000004
K2Ba(NO2)4,2.0734000000000004
K2Ba(SO)12,2.6279
K2Ba3Sb4,0.34240000000000004
K2Ba5(Si2O5)6,4.71
K2BaAs5,0.0
K2BaCdSb2,0.15000000000000036
K2BaCo(NO2)6,1.0293
K2BaCo(NO2)6,0.0
K2BaCu(NO2)6,0.22810000000000008
K2BaLiCo(NO2)6,0.9180000000000001
K2BaLiCo(NO2)6,0.9163000000000001
K2BaLiCo(NO2)6,1.1227
K2BaNa2Ti4(SiO4)8,0.5992
K2BaNb2S11,0.9735999999999998
K2BaNi(NO2)6,1.4136000000000002
K2BaSnTe4,0.8921000000000001
K2BaV2ClO7,0.0
K2Be(CO2)4,3.3987
K2Be(Si2O5)2,4.401999999999999
K2Be2(Si2O5)3,4.83
K2Be2(SiO3)3,5.035
K2Be2O3,3.4891
K2Be2PbF8,5.5671
K2Be2Zn2Si3O11,3.5046999999999997
K2Be3Co2F12,0.008800000000000002
K2Be3Ni2F12,6.1124
K2Be3Zn2F12,5.787
K2BeCl4,5.241099999999999
K2BeF4,6.8658
K2BeF4,6.9319
K2BeH4(SO5)2,5.276
K2BeH4(SeO5)2,3.2321999999999997
K2BeO2,3.0937
K2Bi(IO3)5,2.9708000000000006
K2Bi2O5,0.0
K2Bi3F11,3.8253
K2Bi8Se13,0.13649999999999984
K2Bi8Se13,0.8361000000000001
K2BiAu,0.8705
K2BiAuBr6,0.389
K2BiAuCl6,0.9632999999999998
K2BiF5,4.7686
K2BiH4Cl5O2,3.6572999999999998
K2BiH5(CO2)5,4.112
K2BiMoPO8,3.5602
K2BiPCO7,3.626
K2BiPWO8,4.0502
K2BrCl,4.487
K2BrCl6F,0.9144
K2CN2,3.1433
K2CO3,3.2835
K2CO3,3.649
K2CO3,3.6288
K2CS2(O3F)2,5.5367
K2Ca(CO3)2,4.353400000000001
K2Ca2(CO3)3,4.7388
K2Ca2(SO4)3,5.3165
K2Ca2(SO4)3,5.6275
K2Ca2Mg(S2O9)2,0.6944000000000001
K2Ca3Si3O10,4.7684999999999995
K2Ca3Si3O10,4.1123
K2Ca4Si8O21,4.3804
K2Ca4U(SiO4)4,2.0773
K2Ca5N4,0.0
K2Ca5S6O25,0.39470000000000005
K2CaAs2O7,3.513
K2CaCu(NO2)6,0.2538
K2CaH2S2O9,5.3835999999999995
K2CaH8(N3O)4,3.93
K2CaMg5Si8(HO12)2,4.401999999999999
K2CaNd4Nb2O12,0.4659999999999993
K2CaNd4Nb2O12,0.0
K2CaNi(NO2)6,1.7049
K2CaP2O7,4.8824000000000005
K2CaPrO4,0.0
K2CaS2O9,0.5155000000000001
K2CaS2O9,0.0
K2CaV4H14O19,3.0279
K2CaZrH16(CO3)8,3.0774999999999997
K2Cd(AuS)4,2.0328999999999997
K2Cd(BH4)4,5.3008
K2Cd(CN)4,5.994400000000001
K2Cd(NO2)4,2.4568
K2Cd2(SO4)3,3.688
K2Cd2(SO4)3,3.7527999999999997
K2Cd2O3,0.6513
K2Cd2Te3,1.3224
K2Cd3S4,1.7875999999999999
K2Cd3Se4,1.4027999999999998
K2Cd3SnAs4,0.0
K2Cd3Te4,1.438
K2CdAu,0.0
K2CdGeO4,2.3122000000000003
K2CdH2C8(N3O4)2,3.6893000000000002
K2CdH4(SeO5)2,2.9829
K2CdN12,2.9045
K2CdN12,2.8637
K2CdO2,1.3562
K2CdP2O7,3.7794999999999996
K2CdPb,0.0
K2CdSiO4,2.6403
K2CdSn,0.059499999999999886
K2CdSnS4,1.4957
K2CdSnSe4,1.6721
K2Ce(CuS2)2,0.5588999999999995
K2Ce(NO3)6,1.3666
K2Ce(NO3)6,1.5245
K2Ce(PO4)2,1.4179000000000002
K2Ce(PO4)2,1.4413999999999998
K2Ce(Si2O5)3,1.9442
K2Ce2Fe4O11,0.09419999999999984
K2CeAg3Te4,0.038899999999999935
K2CeAgBr6,2.5986
K2CeAgCl6,2.8497999999999997
K2CeAgI6,0.21370000000000022
K2CeAl(SiO3)4,0.27090000000000014
K2CeAuCl6,2.2375000000000003
K2CeBr5,0.1634000000000002
K2CeCl5,0.3104
K2CeCuBr6,0.21160000000000023
K2CeCuCl6,1.5332000000000003
K2CeCuI6,0.3701000000000003
K2CeF6,2.1176
K2CeH2S3O13,1.0172999999999999
K2CeI5,0.1842999999999999
K2CeNb5O15,0.0
K2CePCO7,0.0
K2CeS3O13,0.39449999999999996
K2CeTa5O15,0.0481000000000007
K2Co(PO3)4,3.1734
K2Co(SO5)2,0.7162
K2Co(SeO3)2,0.0
K2Co2(MoO4)3,2.5043
K2Co2(MoO4)3,2.1587
K2Co2(SO4)3,2.7184
K2Co2(SeO3)3,2.6268000000000002
K2Co3H6S3O16,0.0242
K2Co3P4(HO4)4,2.8373999999999997
K2CoBr4,0.9722999999999999
K2CoCl4,0.7173
K2CoCl4,0.021799999999999986
K2CoCl4,0.8147
K2CoF4,0.0
K2CoF6,1.1713
K2CoH12(C2O7)2,1.2163
K2CoH12(SO7)2,0.6016000000000001
K2CoH12(SeO7)2,2.9128
K2CoH2(SO5)2,0.883
K2CoH2(SeO5)2,1.0581
K2CoH4(I2O7)2,2.5604000000000005
K2CoH4(I2O7)2,0.21540000000000026
K2CoH4(I2O7)2,0.015200000000000102
K2CoH4(I2O7)2,0.0
K2CoH4(SeO5)2,0.31389999999999996
K2CoH8(CO5)2,3.5964
K2CoHgF6,0.0
K2CoI4,0.5509999999999999
K2CoO2,0.16990000000000016
K2CoO3,0.12519999999999998
K2CoP2(H3O4)2,3.1642
K2CoP2WO10,2.6609999999999996
K2CoP4(HO2)8,3.4852
K2CoP4(HO2)8,3.9651
K2CoP4H10O17,3.0405
K2CoPCO7,0.9361
K2CoPb(NO2)6,1.0766
K2CoPb(NO2)6,0.0
K2CoS2,0.0
K2CoSe2,0.0
K2CoSiO4,2.7551
K2Cr2(PO4)3,0.0
K2Cr2AsHO10,2.6881
K2Cr2AsHO10,2.6898999999999997
K2Cr2AsHO10,2.6723
K2Cr2AsO10,0.019200000000000106
K2Cr2Cd(H2O5)2,0.0
K2Cr2HgCl2O7,2.5189
K2Cr2O7,2.7075
K2Cr2O7,2.7644
K2Cr2O7,2.5108
K2Cr3(ClF3)2,2.1231
K2Cr3O10,1.9511
K2Cr3O9,0.27059999999999995
K2Cr4CdO16,0.7229
K2Cr4Co(HO4)4,1.9353
K2Cr4O13,1.9717999999999998
K2CrAgF6,2.8775
K2CrAuF6,1.5844
K2CrCuF6,0.6825999999999999
K2CrF5,3.8102
K2CrF6,0.0
K2CrH2Cl5O,2.3851
K2CrH2F8,2.0316
K2CrH5C4S4N4O3,2.5372
K2CrHgF6,0.0
K2CrMo6H19O32,0.6964999999999999
K2CrMo6H23O32,3.1246
K2CrO4,3.0699
K2CrO4,2.8846
K2CrOF5,2.4206
K2CrPCO7,2.1462000000000003
K2CrSO7,2.3191
K2Cu(CO3)2,0.5492000000000001
K2Cu(CO3)2,0.6159
K2Cu(ClF)2,0.3002
K2Cu(ClF)2,0.0
K2Cu(IF)2,0.0
K2Cu(PO3)4,1.0802999999999998
K2Cu(PS3)3,1.9435
K2Cu(SO5)2,0.04779999999999984
K2Cu(Si2O5)2,2.6866999999999996
K2Cu2(MoO4)3,0.08879999999999999
K2Cu2Te5,0.0
K2Cu3(AsO3)4,0.0
K2Cu3(MoO4)4,0.5975999999999999
K2Cu3(SeO3)4,0.09129999999999994
K2Cu3Ge5O14,0.31720000000000015
K2Cu3S3O13,0.14050000000000007
K2Cu5H8(Cl4O3)2,0.0
K2Cu5TeS3O19,0.0676000000000001
K2CuAs,1.0674000000000001
K2CuAsF6,0.9780000000000002
K2CuAuCl6,0.0
K2CuAuF6,0.0
K2CuBiBr6,0.8862000000000001
K2CuBiCl6,1.1616999999999997
K2CuBiF6,0.8218000000000001
K2CuBiI6,0.8293000000000001
K2CuBr3,1.9017999999999997
K2CuCl3,2.0520000000000005
K2CuCl4,0.0
K2CuF4,0.0
K2CuF4,0.5601
K2CuH12(SO7)2,0.30799999999999994
K2CuH12(SeO7)2,0.5889
K2CuH14C4(N3O4)2,1.0941999999999998
K2CuH4,0.0
K2CuH4(Cl2O)2,0.6993
K2CuH8(CO3)4,3.0671999999999997
K2CuMoBr6,0.3972
K2CuMoCl6,0.7574000000000001
K2CuMoI6,0.08700000000000019
K2CuP,1.1421000000000001
K2CuP2O7,0.0
K2CuPCO7,0.0811
K2CuPb(NO2)6,0.0
K2CuS(ClO2)2,0.5867
K2CuSb,1.1104
K2CuSbBr6,0.40069999999999983
K2CuSbCl6,0.6278999999999999
K2CuSbF6,0.8543000000000003
K2CuSbI6,0.6999
K2CuSbS3,0.8515999999999999
K2Dy4Cu4S9,0.8801999999999999
K2Dy4Cu4S9,0.9616000000000002
K2Dy4Cu4S9,0.7189999999999999
K2Dy4Cu4Se9,0.7292999999999998
K2DyAgCl6,3.6341
K2DyAuCl6,2.1841
K2DyCl5,4.9233
K2DyCuCl6,2.4628999999999994
K2DyF5,6.7515
K2DyNb5O15,1.8612
K2DyPCO7,4.3407
K2Er(NO3)5,3.4458
K2Er2(PO4)3,0.0349
K2ErAgCl6,3.6443
K2ErAuCl6,2.1632
K2ErCuCl6,2.4196999999999997
K2ErF5,6.7896
K2ErPCO7,4.4968
K2ErTi(PO4)3,2.5575
K2Eu2O3,0.0
K2EuAgCl6,0.0
K2EuAuCl6,0.0
K2EuCl5,0.0
K2EuCuCl6,0.0
K2EuF5,0.15880000000000005
K2EuGeSe5,0.2239
K2EuNb5O15,0.0
K2EuSi4O10F,0.09809999999999997
K2EuSiSe5,0.3390000000000004
K2EuTa5O15,0.0
K2Fe(PS3)2,0.0
K2Fe(PSe3)2,0.5268000000000002
K2Fe2(PO4)3,0.22430000000000005
K2Fe2(SO4)3,0.6839000000000004
K2Fe2As2O9,1.8765
K2Fe2B2O7,2.4615
K2Fe2H8C4Cl2O13,2.2251000000000003
K2Fe2P2O7F2,3.5208
K2Fe2P2O7F2,3.2106000000000003
K2Fe2SeS3,0.0
K2Fe3P4(HO4)4,3.6361
K2Fe4O7,0.8588
K2Fe9H18S6O43,0.0
K2FeAgF6,2.1064
K2FeAuF6,1.0919
K2FeCo(CN)6,0.0
K2FeCu(CN)6,0.6179
K2FeF5,2.2319
K2FeF5,2.9703
K2FeF5,3.6824000000000003
K2FeF5,3.6845
K2FeF5,3.6763000000000003
K2FeGe3Se8,0.11319999999999997
K2FeH12(SO7)2,1.1225999999999998
K2FeH2Cl5O,2.2076
K2FeH2OF5,2.7881
K2FeH4(SO5)2,1.9558000000000002
K2FeH4(SO5)2,4.0493999999999994
K2FeH4(SO5)2,0.0
K2FeH8(SO6)2,3.2391
K2FeH8(SO6)2,4.4501
K2FeHgF6,0.0
K2FeI4,0.0
K2FeNi(CN)6,1.5027
K2FeO4,1.6197000000000001
K2FeO4,1.27
K2FeP2H3(O4F)2,2.9297
K2FeP2O7,4.1612
K2FePCO7,1.8518000000000001
K2FePH5(CO5)2,2.5254
K2FeSn(PO4)3,2.6995999999999993
K2Ga2As3,1.0329000000000002
K2Ga2B2O7,3.7999
K2Ga2Sb3,0.9068999999999998
K2Ga3,0.2106999999999999
K2Ga3CuSe6,1.4218
K2GaAgBr6,0.02360000000000001
K2GaAgCl6,1.1817
K2GaAgF6,2.243
K2GaAgI6,0.0
K2GaAs2,1.243
K2GaAuBr6,0.0
K2GaAuCl6,0.0
K2GaAuF6,0.6779000000000001
K2GaAuI6,0.0
K2GaB5(H4O7)2,5.0529
K2GaCuF6,0.21879999999999988
K2GaHgBr6,0.0
K2GaHgCl6,0.0
K2GaHgF6,0.0
K2GaHgI6,0.0
K2GaP2,1.2486
K2GaP2H3(O4F)2,4.9272
K2GaPCO7,3.4804999999999997
K2GaSb2,1.1041999999999998
K2Gd(BH4)5,2.5191000000000003
K2Gd2Mg(MoO4)4,1.4769999999999999
K2Gd2Mg(MoO4)4,1.3071000000000002
K2Gd2Mg(MoO4)4,1.6099
K2Gd2Sb2Se9,0.9220000000000002
K2GdAuCl6,1.5861999999999998
K2GdCl5,2.5725000000000002
K2GdCuCl6,0.3877999999999999
K2GdF5,0.24239999999999995
K2Ge(IO3)6,3.1784000000000003
K2Ge(S2O7)3,3.7751
K2Ge2O3,2.0371
K2Ge2O5,2.9349999999999996
K2Ge2Pb2O7,3.1648
K2Ge2PbS6,2.2112999999999996
K2Ge2S5,2.2390999999999996
K2Ge2Se5,1.8029
K2Ge2Se5,1.7999
K2Ge3(BO5)2,3.8682999999999996
K2Ge4O9,3.0055
K2Ge8O17,2.7472
K2GeAs2,0.8442000000000001
K2GeF6,5.899800000000001
K2GeF6,5.799799999999999
K2GeSe3,1.7264
K2GeSe4,1.7867
K2GeTe4,0.8177000000000001
K2H12Ru(SO7)2,2.0820999999999996
K2H2C2O5,3.3983999999999996
K2H2C2S2N2O,2.3712000000000004
K2H2IrCl5O,1.8583000000000003
K2H2OsCCl5O2,0.5613
K2H2RuO5,0.6226
K2H2Se(IO5)2,3.7575
K2H3CO4F,4.766500000000001
K2H3IrNCl5,2.1428000000000003
K2H4IO5,3.6266
K2H4Pd,2.424
K2H4Pd(N2O5)2,2.3
K2H4Pt,2.6017
K2H4Pt,2.9939999999999998
K2H5F7,6.911899999999999
K2H6PbO6,2.1354
K2H6Pt,3.9976000000000003
K2H6PtC4N4O3,1.8723
K2HBrO,3.5348
K2HI2ClO6,3.0513
K2HRuCl5,0.0
K2HS2NO6,4.902699999999999
K2HS2NO6,4.5359
K2HS2NO6,5.2707999999999995
K2HS2NO6,5.0771
K2HS2NO7,5.2869
K2Hf2O5,4.4449
K2HfF6,6.4694
K2HfF6,2.7355
K2HfF6,6.8994
K2HfF6,6.8346
K2HfF6,6.7637
K2HfO3,3.9952000000000005
K2Hg(PSe3)2,1.3921999999999999
K2Hg2SCl4O3,2.2126
K2Hg3(GeS4)2,1.5507
K2Hg3(GeS4)2,1.5520999999999998
K2Hg3(GeSe4)2,1.0352000000000001
K2Hg3C8(NO)8,3.3100000000000005
K2Hg3S3O10,2.3606
K2Hg3S4,1.7842000000000002
K2Hg3Se4,1.1091
K2Hg6S7,1.3918000000000001
K2Hg7,0.0
K2HgAsBr6,0.0
K2HgAsCl6,0.0
K2HgAsF6,0.0
K2HgAsI6,0.0
K2HgAu,0.0
K2HgAuBr6,0.0
K2HgAuF6,0.0
K2HgBiBr6,0.0
K2HgBiCl6,0.0
K2HgBiF6,0.0
K2HgBiI6,0.0
K2HgBr2(NO6)2,1.9283000000000001
K2HgC2S2(BrN)2,2.3991
K2HgCl4,2.297
K2HgCl4,2.3613
K2HgH2Cl4O,2.7153
K2HgIrF6,0.0
K2HgMoF6,0.0
K2HgO2,2.0773
K2HgPdF6,0.0
K2HgRhF6,0.0
K2HgS2,2.1351
K2HgS4,1.2077
K2HgSbBr6,0.0
K2HgSbCl6,0.0
K2HgSbF6,0.0
K2HgSbI6,0.0
K2Ho4Cu4S9,0.8687000000000005
K2Ho4Cu4S9,0.8684000000000003
K2HoCl5,4.9925999999999995
K2HoF5,7.1033
K2HoNb5O15,1.8644000000000003
K2HoPCO7,4.2068
K2HoPWO8,4.543
K2I2ClO6,0.0
K2I3NO12,0.0
K2In(PSe4)2,0.9655999999999998
K2In12Se19,0.8491
K2In12Se19,0.8127999999999997
K2In2As3,0.7807999999999997
K2In2P2HO10,0.13490000000000013
K2In2P3Se10,1.5675000000000001
K2In2Sb3,0.8028
K2In3AgSe6,1.4829
K2In3AgSe6,1.2743
K2In3CuSe6,1.1284
K2InAgBr6,0.2343
K2InAgCl6,1.2922
K2InAgF6,1.6678000000000002
K2InAgI6,0.0
K2InAsBr6,0.5635999999999999
K2InAsCl6,0.5739999999999998
K2InAsI6,0.0
K2InAuBr6,0.0
K2InAuCl6,0.0
K2InAuF6,0.3609
K2InAuI6,0.0
K2InBiF6,2.3638000000000003
K2InCuBr6,0.0
K2InCuCl6,0.044499999999999984
K2InGaBr6,1.0688
K2InGaCl6,1.7475
K2InGaF6,2.5562
K2InGaI6,0.15599999999999992
K2InH2Cl5O,3.1553999999999998
K2InHgBr6,0.0
K2InHgCl6,0.0
K2InHgF6,0.0
K2InHgI6,0.0
K2InMo15Se19,0.0
K2InP2S7,1.8783999999999998
K2InSbBr6,0.6289
K2InSbCl6,1.2295000000000003
K2InSbF6,2.1143
K2InSbI6,0.5200999999999998
K2InSi4HO11,3.7414000000000005
K2IrF6,0.0
K2La2B2O7,4.2027
K2La2Sb2S9,1.1627
K2La2Ti3O10,2.0397999999999996
K2La4O7,2.7588000000000004
K2La6OsI12,0.0
K2LaAgCl6,3.4632
K2LaAuCl6,2.324
K2LaBr5,3.3763
K2LaCl5,4.1634
K2LaCuCl6,2.1253999999999995
K2LaH4N5O17,3.3276000000000003
K2LaI5,2.7532000000000005
K2LaN5O17,0.19289999999999996
K2LaNb5O15,1.8326
K2LaP2S7,2.1148
K2LaP2Se7,1.4116
K2LaPCO7,4.1823
K2LaTa5O15,2.5845000000000002
K2LaTa6(Br5O)3,1.1473
K2Li(H2N)3,2.3848000000000003
K2Li14Pb3O14,1.9157000000000002
K2Li14Zr3O14,4.2801
K2Li2CoO4,0.0
K2Li2CoO4,1.0448
K2Li2FeO4,0.0
K2Li2NiO4,0.0
K2Li2NiO4,0.012699999999999989
K2Li2TiO4,4.2118
K2Li3B(P2O7)2,5.5903
K2Li3CoO4,1.2641
K2Li3CrO4,1.0503999999999998
K2Li3FeO4,3.0917
K2Li3GaO4,3.3151
K2Li3MnO4,0.4625999999999999
K2Li3NiO4,1.4741000000000002
K2Li4UO6,2.1501
K2LiAlF6,7.2177999999999995
K2LiAlF6,7.2639
K2LiAlF6,7.4418
K2LiAlH6,2.5761
K2LiAlH6,2.4373
K2LiAlP2,1.8853
K2LiAsF6,4.5591
K2LiAuCl6,0.0
K2LiAuF6,0.44989999999999997
K2LiB(PO4)2,5.3944
K2LiBO3,3.5239000000000003
K2LiBiBr6,2.9174
K2LiBiCl6,3.6182000000000003
K2LiBiF6,4.8822
K2LiBiI6,1.9247
K2LiC3(SN)3,4.4492
K2LiCeBr6,0.2916000000000003
K2LiCeCl6,0.3230999999999997
K2LiCeF6,0.5647999999999995
K2LiCeI6,0.2547999999999999
K2LiCoF6,0.0
K2LiCrF6,4.1644
K2LiCuF6,0.9248000000000001
K2LiDyCl6,5.0198
K2LiErCl6,5.0496
K2LiEuCl6,0.0
K2LiFeF6,3.9473000000000003
K2LiFeO3,2.0402
K2LiGaAs2,0.7546000000000002
K2LiGaF6,6.1271
K2LiGdCl6,2.8434
K2LiH2(SeO3)2,0.6496
K2LiH2(SeO3)2,0.2229000000000001
K2LiH2(SeO3)2,0.7019000000000001
K2LiH2(SeO3)2,0.7278
K2LiH2(SeO3)2,0.0
K2LiH2(SeO3)2,0.3709
K2LiH2(SeO3)2,0.6477999999999999
K2LiIn(MoO4)3,3.7750999999999997
K2LiInAs2,0.38969999999999994
K2LiInCl6,2.8649999999999998
K2LiInF6,5.2984
K2LiIrF6,2.0831999999999997
K2LiLaCl6,4.554
K2LiLuCl6,5.0952
K2LiMn2O4,0.0
K2LiMn2O4,1.1093000000000002
K2LiMn2O4,0.687
K2LiMnF6,0.0
K2LiMnPCO7,3.2914
K2LiMoBr6,1.2722
K2LiMoCl6,1.4862
K2LiMoF6,4.4161
K2LiMoI6,0.9740000000000002
K2LiNb2P2(CO7)2,0.0676000000000001
K2LiNb2P2(CO7)2,0.029100000000000126
K2LiNb6(PO8)3,2.2981
K2LiNb6(PO8)3,1.8622
K2LiNbF6,0.0
K2LiNbO4,3.8068
K2LiNbO4,4.1581
K2LiNd4Nb2O12,0.0
K2LiNd4Nb2O12,0.21839999999999993
K2LiNdBr6,3.973
K2LiNdCl6,4.8605
K2LiNdF6,6.379099999999999
K2LiNdI6,2.9488000000000003
K2LiNiF6,0.0
K2LiP3HO9,3.5018000000000002
K2LiP3O10,0.5922000000000001
K2LiPdF6,0.0
K2LiPdF6,0.37870000000000004
K2LiPrBr6,3.9531
K2LiPrCl6,4.8264
K2LiPrI6,2.9382
K2LiRhF6,1.7665
K2LiRuF6,0.0
K2LiS2(O2F)2,0.27390000000000003
K2LiS2(O2F)2,1.0342
K2LiS2(O2F)2,0.9722000000000001
K2LiS2(O2F)2,1.0016999999999998
K2LiSbBr6,2.3188
K2LiSbCl6,2.9339
K2LiSbF6,4.1086
K2LiSbI6,1.7108
K2LiScCl6,3.7413999999999996
K2LiScF6,6.773300000000001
K2LiSmCl6,4.9171
K2LiSn4,0.6936999999999998
K2LiTa6(PO8)3,3.0471
K2LiTaBr6,0.0
K2LiTaCl6,0.0
K2LiTaI6,0.0
K2LiTbCl6,4.9973
K2LiTi2(AsO5)2,0.0
K2LiTiF6,0.0
K2LiTlBr6,0.5592999999999999
K2LiTlCl6,1.5798
K2LiTlF6,3.5058
K2LiTmCl6,5.0647
K2LiV5H10O19,2.5943
K2LiVF6,0.0
K2LiVO4,3.9760999999999997
K2LiVPO6,4.1095999999999995
K2LiVS4,1.5185
K2LiYBr6,4.036
K2LiYCl6,4.9248
K2LiYF6,6.697100000000001
K2LiYI6,2.9702
K2LuAgCl6,3.6296
K2LuAuCl6,2.0732
K2LuCuCl6,2.4709000000000003
K2LuF5,6.7715
K2LuPCO7,4.5152
K2LuSi4O11,0.5249
K2LuZr(PO4)3,4.3151
K2Mg(BH4)4,6.3148
K2Mg(CO3)2,4.304
K2Mg(CO3)2,4.0485999999999995
K2Mg(CoO2)2,1.5473000000000001
K2Mg(CoO2)2,1.7828
K2Mg(CoO2)2,1.3695
K2Mg(CoO2)2,1.7495
K2Mg(FeO2)2,1.4539
K2Mg(FeO2)2,0.20290000000000008
K2Mg(H2N)4,2.0665999999999998
K2Mg(PSe3)2,1.6572
K2Mg(ReO4)2,0.08840000000000026
K2Mg2(MoO4)3,4.1196
K2Mg2(MoO4)3,3.8881
K2Mg2(MoO4)3,4.2687
K2Mg2(SO4)3,5.544899999999999
K2Mg2Be3F12,7.1325
K2Mg2O3,2.888
K2Mg2O3,2.923
K2Mg2Si2O7,4.6783
K2Mg3P4(H5O6)4,4.9917
K2Mg3Zn2(Si2O5)6,4.388999999999999
K2Mg4U3(H13O12)4,1.7029
K2Mg5(Si2O5)6,4.8751
K2Mg5Cu3(AsO4)6,0.22429999999999994
K2Mg5Sn3,0.0
K2MgB12(H2O3)10,5.5415
K2MgCl4,4.7652
K2MgCr2(H2O5)2,0.014899999999999913
K2MgCr2Cd(H2O5)2,0.9814999999999999
K2MgCr2Cd(H2O5)2,1.0840999999999998
K2MgCuF6,0.0
K2MgF4,6.405900000000001
K2MgFe4P6(O4F3)4,1.4676999999999998
K2MgFe4P6(O4F3)4,1.5881000000000003
K2MgFe4P6(O4F3)4,1.4228
K2MgFe4P6(O4F3)4,1.8506
K2MgFe4P6(O4F3)4,1.7159999999999997
K2MgFe4P6(O4F3)4,1.6998000000000002
K2MgFe4P6(O4F3)4,1.4418000000000002
K2MgFe4P6(O4F3)4,1.5774000000000004
K2MgFe4P6(O4F3)4,1.5893000000000002
K2MgFe4P6(O4F3)4,1.5585999999999998
K2MgFe4P6(O4F3)4,1.6915999999999998
K2MgGeO4,3.4802
K2MgH12(SO7)2,5.196
K2MgH12(SeO7)2,3.9456999999999995
K2MgH4,3.4385
K2MgH4(I2O7)2,3.3616
K2MgH8(CO5)2,4.5358
K2MgH8(SO6)2,5.022
K2MgH8(SO6)2,4.3885000000000005
K2MgH8(SO6)2,5.18
K2MgH8(SO6)2,5.175999999999999
K2MgMn2P6(HO10)2,3.4042999999999997
K2MgMn2P6(HO10)2,3.6782000000000004
K2MgMn2P6(HO10)2,3.843
K2MgMn2P6(HO10)2,3.5628
K2MgMn3V2(HO5)2,1.2494
K2MgMn3V2(HO5)2,1.6168999999999998
K2MgMnH4(I2O7)2,2.021
K2MgMo2(H2O5)2,4.3482
K2MgMo2(H2O5)2,3.5278
K2MgMo2P2(ClO5)2,1.0789
K2MgNb2(CuS2)4,0.4511000000000003
K2MgNb2(CuS2)4,0.0
K2MgO2,2.5286
K2MgP2WO10,3.4570999999999996
K2MgP4(HO2)8,5.368099999999999
K2MgSi5O12,4.8799
K2MgSiO4,4.0026
K2MgTi2(PS5)2,0.036900000000000155
K2MgTi2O5,0.0
K2MgV2(CuS2)4,0.0
K2MgV2O7,3.2367999999999997
K2MgZn4P4(HO8)2,0.8736999999999999
K2MgZn4P4(HO8)2,1.0185
K2MgZn4P4(HO8)2,0.9413999999999998
K2MgZr(MoO4)4,3.0641
K2Mn(BH4)4,2.5177
K2Mn(NbCl3)6,1.0316999999999998
K2Mn(PS3)2,0.16339999999999977
K2Mn(PSe3)2,0.7566000000000002
K2Mn(SeO3)2,3.6409000000000002
K2Mn(SnSe3)2,0.8791
K2Mn2(MoO4)3,3.0261
K2Mn2(SO4)3,4.431
K2Mn2Be3F12,4.5317
K2Mn2Be3F12,4.7164
K2Mn2O3,0.0
K2Mn2P2O7F2,3.3580000000000005
K2Mn2Zn4Si4O15,0.9687000000000001
K2Mn3(AsO4)3,0.6156999999999999
K2Mn3H10S4O21,2.2189
K2Mn3H6S3O16,3.3084000000000002
K2Mn3P4(HO3)4,3.9518
K2Mn3S4,0.0
K2Mn3V2(HO5)2,1.6717
K2Mn3V2CO11,2.1887
K2Mn5Si12O31,0.5683999999999998
K2MnAgF6,0.0
K2MnAuF6,0.0
K2MnCl6,1.0996000000000001
K2MnF4,2.8070000000000004
K2MnF6,3.3462