formula,band_gap
FeCu3(PO4)4,0.0
FeCu3S4,0.0
FeCu3S8,0.0
FeCu4,0.0
FeCu4BiPbS6,0.0
FeCu4Re14(Mo3S20)2,0.0
FeCu5S4,0.0
FeCu6(SnS4)2,0.0
FeCu6GeS8,0.0
FeCuAs2PbO10,0.0
FeCuBi2(AsO6)2,0.0
FeCuNi,0.0
FeCuO2,0.0
FeCuO2,0.8043999999999998
FeCuPO5,0.0
FeCuPt2,0.0
FeCuS2,0.0
FeCuSe2,0.0
FeCuSeS,0.0
FeCuTe2,0.0
FeF2,1.6921
FeF3,3.0128
FeF3,3.0517
FeF3,3.0027999999999997
FeF3,3.1061
FeF3,2.8517
FeF3,3.1326
FeF6,0.5263
FeGe,0.09060000000000024
FeGe,0.0
FeGe2,0.0
FeGe3H4PbO10,2.9159999999999995
FeGe4H24C8(S5N)2,0.2570999999999999
FeGeO3,1.9617
FeGeRu2,0.0
FeGeS3,0.0356999999999994
FeH,0.0
FeH10N2Cl5O,2.1988
FeH10N2OF5,3.3271
FeH10N3O14,1.8689
FeH10S2(NO2)4,4.4430000000000005
FeH10S2(NO2)4,4.4719
FeH10S2(NO2)4,4.6322
FeH10S2NO11,2.1129000000000002
FeH10S2NO11,2.4313000000000002
FeH12(NF2)3,1.6323
FeH12(SO7)2,0.02660000000000018
FeH12C2(N5O3)2,1.197
FeH12C2(NCl2)2,0.0
FeH12C2(NCl2)2,0.19459999999999988
FeH12C2N2F5,3.5842
FeH12C2S2(O2F)6,4.3131
FeH12C4(N9O2)2,3.65
FeH12C4(S2O3)2,1.8802
FeH12C4NCl4,1.2518
FeH12C6N(ClO2)2,2.4976000000000003
FeH12N3(OF2)3,3.5115
FeH12Pt(ClO)6,2.3613
FeH14C3Br3NO2,4.2954
FeH14C4NOF4,3.8232999999999997
FeH14SO11,4.3717
FeH16C4(NCl2)2,0.008200000000000096
FeH16C4N2Cl5,1.6142
FeH16C4S4(N4Cl)2,1.9676999999999998
FeH18(NO6)3,2.8406000000000002
FeH18C3(N3F2)3,3.0483000000000002
FeH18C6N6O13,3.2897
FeH20C8NCl4,0.6562
FeH20S2(NO7)2,3.7756
FeH21C7S3N,0.2953
FeH24C2S2(N3O7)2,3.9827
FeH24C6(IO3)2,4.1759
FeH24C8(NCl2)2,2.4297
FeH2SO5,3.1761
FeH3,0.0
FeH36C12S6(BrO2)3,1.5168
FeH4(CO3)2,2.3465
FeH4(ClO)2,3.8518999999999997
FeH4(SO5)2,0.07240000000000002
FeH4Br3N,0.04420000000000002
FeH4C3O5,2.4532000000000003
FeH4C3O8,1.0787
FeH4S2NO8,1.9115999999999997
FeH5CN(ClO)2,3.6932
FeH6(CO3)2,3.9068
FeH6C2(NO2)2,2.7606
FeH6SO6,1.4491
FeH7(CO2)4,1.4882
FeH7C3NO6,3.8933999999999997
FeH7C3NO6,3.8417
FeH7SO8,2.2921
FeH8(BrO2)2,1.7042
FeH8(ClO2)2,3.8757
FeH8(ClO2)2,2.5945
FeH8C4(S2N3)2,0.23649999999999993
FeH8N3O13,2.3425000000000002
FeH8S2NO10,2.221
FeH8SO8,4.0183
FeH9(NF)3,3.0751999999999997
FeH9(SO6)2,2.5427
FeH9C4(NO2)3,3.7591
FeHC2O3,1.5805999999999998
FeHO2,2.0028
FeHO2,1.4013000000000002
FeHO2,0.8840999999999999
FeHO2,1.2074
FeHO2,1.5857999999999999
FeHO2,1.67
FeHO2,2.0566000000000004
FeHO2,1.8729
FeHO2,0.0
FeHO2,1.9985999999999997
FeHO2,1.759
FeHO2,1.3496000000000001
FeHO2,1.4117
FeHO2,1.7285000000000001
FeHO2,1.6806
FeHO2,2.0151
FeHO2,1.4417
FeHO2,1.9086
FeHO2,0.8373999999999999
FeHO2,1.4523000000000001
FeHO2,1.7408000000000001
FeI2,0.0
FeIr,0.0
FeIr3,0.0
FeMo2,0.0
FeMo2H4NO8,2.6352
FeMo2H7O11,2.5715
FeMo2H7O11,2.6523
FeMo3As4,0.0
FeMo3PdN,0.0
FeMo3PtN,0.0
FeMo6Pd3N2,0.0
FeMo6Rh3N2,0.0
FeMoAs2,0.0
FeMoClO4,1.8735
FeMoClO4,1.5746
FeMoClO4,2.1992000000000003
FeMoHSeO7,1.6635999999999997
FeMoO4,2.037
FeMoO4,0.28149999999999986
FeMoP,0.0
FeN,0.0
FeN2,0.0
FeNi,0.0
FeNi(PO4)2,0.0
FeNi(PS3)2,0.0
FeNi2,0.0
FeNi2BO5,1.6665
FeNi2Ge,0.0
FeNi3,0.0
FeNi3(Mo3N)2,0.0
FeNi3(PO4)4,0.0
FeNi35S32,0.0
FeNi3Sn2(PO4)6,0.0
FeNi5N4,0.0
FeNiAg2F7,0.7212
FeNiAs,0.0
FeNiAs4,0.0
FeNiB,0.0
FeNiGe,0.0
FeNiMo3N,0.0
FeNiN,0.0
FeNiO3,0.0
FeNiO3,0.3841999999999999
FeNiP,0.0
FeNiP2O9,0.0
FeNiP6,0.0
FeNiPO5,0.0
FeNiPt2,0.0
FeNiPt6,0.0
FeNiS4,0.0
FeNiSb4,0.0
FeNiSb6,0.12849999999999984
FeNiSe4,0.0
FeNiSn,0.0
FeNiTe4,0.0
FeO,0.0
FeO,2.0878
FeO,1.8157000000000005
FeO,1.7989000000000002
FeO,1.0884
FeO,0.9475000000000007
FeO,1.1609999999999996
FeO2,0.0
FeOF,1.2815
FeOF,0.0
FeOF,1.4842
FeOF,1.0415
FeOF,1.382
FeOF,0.39060000000000006
FeOF,1.4952
FeOF,0.5958999999999999
FeOF,1.7361
FeOF,1.4638999999999998
FeOF,0.9122999999999999
FeOF,0.29990000000000006
FeOF,1.4934999999999998
FeOF,0.7429999999999999
FeOF,0.5985999999999998
FeOF,0.21850000000000003
FeOF,1.9005
FeOF,0.005099999999999993
FeOF,1.4661
FeOF,0.6481000000000003
FeOF,1.1254000000000002
FeOF,0.5070999999999999
FeOF,1.4903
FeOF,0.8996999999999997
FeOF,1.6065
FeOF,1.4960000000000002
FeOF,0.3214999999999999
FeOF,0.1389999999999998
FeOF,1.6772
FeOF,0.8944000000000001
FeOF,0.24189999999999978
FeOF,0.8938999999999999
FeOF,0.7532999999999999
FeOF,0.23390000000000022
FeOF,0.2722000000000002
FeOF,0.3353999999999999
FeOF,1.2588000000000001
FeOF,0.40290000000000026
FeOF,0.6595
FeOF,0.38439999999999985
FeOF,0.8936000000000002
FeOF,0.05929999999999991
FeOF,1.1886
FeOF,0.4687
FeOF,1.1872999999999998
FeOF,0.2892000000000001
FeOF,0.8937999999999999
FeOF,0.19960000000000022
FeOF,0.3078000000000003
FeOF,1.1788
FeOF,0.7301000000000002
FeOF,0.4964999999999997
FeOF,0.12739999999999974
FeOF,0.3581000000000003
FeOF,1.4859
FeOF,0.21289999999999987
FeOF,1.6225
FeOF,0.8833000000000002
FeOF,0.6735000000000002
FeOF,1.3562999999999998
FeOF,0.5248999999999997
FeOF,0.5966
FeOF,1.6906
FeOF,1.4923000000000002
FeOF,0.5992999999999999
FeOF,0.5985
FeOF,1.1955
FeOF,0.2988999999999997
FeOF,0.29669999999999996
FeOF,0.8880999999999999
FeOF,1.2973
FeOF,0.49770000000000003
FeP,0.0
FeP(H2O3)2,2.6012
FeP(H2O3)2,2.4507000000000003
FeP2,0.43270000000000053
FeP2(H4O5)2,4.3922
FeP2(H4O5)2,4.1848
FeP2(PbO5)2,0.0
FeP2H24C8S4NClO4,3.1831
FeP2H6NO8,2.0996
FeP2HO7,2.5846
FeP2HO7,2.1761
FeP2O7,0.3708
FeP2O7,0.0
FeP2O7,0.053300000000000014
FeP2O7,0.0628
FeP2PbO7,4.1688
FeP2W,0.0
FeP2WO8,0.0
FeP3(H2O3)3,2.4117
FeP3(HO)6,2.8556
FeP3(HO2)6,2.4143
FeP3(HO5)2,3.2236
FeP3H18C6(SO)6,1.7519
FeP3H5NO10,2.4077
FeP4,0.7014000000000014
FeP4,0.8292999999999999
FeP4,0.8049
FeP4O11,4.329000000000001
FeP4O11,3.5753999999999997
FeP4O11,3.7104
FeP4O13,0.1028
FeP6(WO8)3,2.0728
FePCl8,1.4417
FePH12(CBr)4,1.2953
FePH12(CCl)4,1.5822
FePH2O5,2.0601000000000003
FePH3CO7,2.6603
FePH4(NO2)2,2.2276999999999996
FePH4NO4F,2.3960000000000004
FePH5CO4,3.8726
FePH5CO4,3.9538999999999995
FePH5CO4,0.0
FePH5CO4,3.912
FePH5CO4,3.0423999999999998
FePH5CO8,3.7239
FePH5CO8,2.5269999999999997
FePH5NO4F,3.7068000000000003
FePH6(NO2)2,2.655
FePH6(NO2)2,2.6803
FePH6NO5,3.6401000000000003
FePH6NO5,3.5059
FePH6NO5,3.8143000000000002
FePH6NO5,3.5902000000000003
FePH6NO5,3.7527999999999997
FePH6NO5,3.3169000000000004
FePHO5,0.0
FePO4,1.6047
FePO4,2.6991
FePO4,2.5686999999999998
FePO4,1.3138000000000003
FePO4,2.7489
FePO4,2.4147
FePO4,0.6198000000000001
FePO4,2.5353000000000003
FePO4,0.9954999999999998
FePO4,1.2423000000000002
FePO4,2.7961
FePO4,2.8055000000000003
FePO4,2.4257
FePO4,0.36719999999999997
FePO4,2.6721000000000004
FePO4,1.7056
FePO4,2.4307
FePO4,2.4351
FePO4,2.6866
FePO4,2.7331000000000003
FePO4,2.1857
FePO4,2.1932
FePO4,2.5497
FePO4,2.4109
FePO4,2.7823
FePO4,2.7245
FePO4,2.4187000000000003
FePO4,1.1156000000000001
FePO4,1.6668000000000003
FePO4F,0.0
FePRh,0.0
FePS,0.5054000000000007
FePS3,0.4283999999999999
FePS3,0.0
FePSe,0.1894
FePSe3,0.0015000000000000568
FePb2(CN)6,3.4058
FePb2WO6,2.3575
FePbO3,0.0
FePd,0.0
FePd2,0.0
FePd3,0.0
FePt,0.0
FePt(CN)6,2.2287
FePt3,0.0
FePtO2,0.0
FeRe,0.0
FeRe(PbO3)2,0.0
FeRe2(H2O3)4,2.6837999999999997
FeRe2(MoS4)2,0.0
FeRe3,0.0
FeReB,0.0
FeRh,0.0
FeRh3,0.0
FeRu,0.0
FeS,0.0
FeS2,0.8770000000000007
FeS2,0.4571999999999994
FeS3(NCl2)2,0.9774
FeS3N2Cl5,0.9742
FeS4N4Cl5,0.4905
FeSCl7,1.3835
FeSCl7,0.981
FeSO3,2.7701
FeSO4,2.2869
FeSO4,4.2084
FeSO4F,2.0446
FeSO4F,2.0927
FeSO5,0.23210000000000003
FeSO5,0.0
FeSb,0.0
FeSb(P2O7)2,2.6756
FeSb(PO4)2,0.0
FeSb2,0.0
FeSb3,0.0
FeSb3(PO4)4,1.0490999999999997
FeSb3(PO4)6,1.5802
FeSb3Pb4O13,1.2530000000000001
FeSb6(Pb2S7)2,0.0
FeSb6(Pb2Se7)2,0.21039999999999992
FeSb6Pd,0.2488999999999999
FeSbAs,0.017599999999999838
FeSbO4,1.6381000000000001
FeSbO4,1.2168999999999999
FeSbO4,1.0037000000000003
FeSbO4,0.0
FeSbRh2,0.0
FeSbS,0.5470000000000006
FeSbSe,0.6219999999999999
FeSbTe,0.2980999999999998
FeSbTe,0.0
FeSe,0.0
FeSe2,0.016299999999999315
FeSe2,0.3741000000000003
FeSe3O8,0.0
FeSeBr7,0.08639999999999998
FeSeCl7,1.3187
FeSeO3F,1.4261
FeSeO4,1.6350999999999998
FeSeO5,0.312
FeSi,0.18020000000000103
FeSi(AgS2)2,0.0
FeSi2,0.6966000000000001
FeSi2,0.0
FeSi6(H27C10)2,0.7316999999999999
FeSi7N10,0.8570000000000002
FeSiGe,0.4379999999999997
FeSiGe,0.30520000000000014
FeSiMo,0.0
FeSiNi,0.0
FeSiO3,0.7031000000000001
FeSiO3,1.4521999999999995
FeSiO3,2.7758
FeSiO3,2.9807
FeSiO3,2.7187
FeSiP3O11,2.4113
FeSiRu2,0.0
FeSiTc2,0.0
FeSiW,0.0
FeSiW,0.06289999999999996
FeSn,0.0
FeSn(PO4)2,1.6008
FeSn2,0.0
FeSn2(CN)6,3.333
FeSn3(PO4)6,0.0
FeSn4H24C8(Se5N)2,0.3086
FeSnF6,0.0
FeSnH12(OF)6,2.0402
FeSnO3,0.8620000000000001
FeSnO3,1.0274999999999999
FeSnRh2,0.0
FeSnRu2,0.0
FeTc2Ge,0.0
FeTe,0.0
FeTe(PO4)2,3.3436999999999997
FeTe(PO4)2,2.8234
FeTe2,0.0
FeTe2,0.07739999999999903
FeTe2BrO5,1.8634
FeTe2ClO5,0.022999999999999687
FeTe3BrO7,1.0909
FeTe3ClO7,2.2711
FeTe3O8,0.0
FeTe3S3Cl3(OF2)9,3.0463
FeTe6O13,2.3469999999999995
FeTeAs,0.6818999999999997
FeTeBr7,1.0553
FeTeCl7,1.2641
FeTeO3F,1.4996
FeWCl5,0.0
FeWClO4,1.9249
FeWN2,0.0
FeWO4,2.401
Ga,0.0
Ga(Ag3Se2)3,0.0
Ga(Bi3O5)4,0.0
Ga(BiBr)4,1.5866
Ga(BiCl)4,1.4226999999999999
Ga(FeO2)2,1.1461999999999999
Ga(HO)3,3.9221
Ga(IO3)3,3.3186999999999998
Ga(MoS2)3,0.9463999999999997
Ga(MoS2)4,0.0
Ga(MoS2)4,0.11979999999999968
Ga(MoSe2)4,0.0
Ga(MoSe2)4,0.2052000000000005
Ga(Ni3B2)4,0.0
Ga(PO3)3,4.8857
Ga(SbBr)4,2.0068
Ga(SbCl)4,2.0171
Ga(SiNi3)2,0.0
Ga(W3O10)4,0.08619999999999983
Ga(W3O10)4,0.043099999999999916
Ga10GePb3O20,3.0318
Ga10Si2O19,2.0816999999999997
Ga11NO15,1.5736999999999997
Ga12Ag2Te19,0.6990000000000003
Ga12OF36,1.0889
Ga13Fe11O32,0.0020999999999995467
Ga16Rh3,0.0
Ga17Rh10,0.0
Ga2(CN2)3,1.89
Ga2(CN2)3,0.0
Ga2(Co7B2)3,0.0
Ga2(Hg4Te5)3,0.0014999999999996128
Ga2(MoO4)3,3.6665
Ga2(Ni7B2)3,0.0
Ga2(SO4)3,3.6631
Ga2(SO4)3,4.33
Ga2(TeO3)3,3.7830999999999997
Ga2(WO4)3,4.224399999999999
Ga2(WSe2)3,0.0
Ga21Ni5,0.0
Ga21Rh4,0.0
Ga23N5O27,0.7542000000000004
Ga2Ag2Se3S,0.40800000000000014
Ga2Ag2SeS3,0.7837000000000001
Ga2Ag2TeSe3,0.23660000000000014
Ga2AsP,0.7805
Ga2AsRh5,0.0
Ga2Au,0.0
Ga2Au7,0.0
Ga2B3O8,0.0
Ga2BiAs,0.0
Ga2BiS4,2.5288999999999997
Ga2BiSe4,1.8901000000000001
Ga2Co6C,0.0
Ga2CoIr,0.0
Ga2CoNi,0.0
Ga2CoO4,0.5134999999999996
Ga2CoO4,1.7927
Ga2CoRu,0.0
Ga2CoS4,0.32379999999999987
Ga2Cu,0.0
Ga2Cu(SeO3)4,0.7535000000000003
Ga2Cu3(SeO3)6,0.048100000000000254
Ga2CuAg(TeSe)2,0.09479999999999977
Ga2CuAgS4,0.7176999999999998
Ga2CuAgSe4,0.0968
Ga2CuAgTe4,0.14690000000000003
Ga2CuCl8,0.5977000000000001
Ga2CuO4,0.0
Ga2CuSe3O10,0.19940000000000024
Ga2Fe(PO4)3,2.8240000000000003
Ga2Fe2Bi2O9,1.741
Ga2Fe2S5,0.0
Ga2Fe6C,0.0
Ga2FeCo,0.0
Ga2FeNi9,0.0
Ga2FeO4,0.5741000000000005
Ga2FeS4,0.0
Ga2FeSe4,0.0
Ga2Ge(MoS2)8,0.024399999999999977
Ga2Ge4Pb3O14,2.1691000000000003
Ga2H6(SeO4)3,3.9646999999999997
Ga2Hg3Cl8,2.489
Ga2Hg5Se8,0.16010000000000013
Ga2HgO4,0.5638000000000003
Ga2HgO4,1.3150000000000002
Ga2HgO4,0.10379999999999967
Ga2HgS4,1.5714
Ga2HgSe4,0.9168000000000001
Ga2HgTe4,0.34570000000000034
Ga2HgTe4,0.6610999999999998
Ga2HgTe4,0.22270000000000012
Ga2I3,2.2709
Ga2Ir,0.0
Ga2IrRh,0.0
Ga2IrRu,0.0
Ga2Mo(SeO5)2,3.6064999999999996
Ga2Ni5Te4,0.0
Ga2Ni7Ge2,0.0
Ga2NiCl8,0.4607
Ga2NiO4,0.0
Ga2NiO4,1.5034
Ga2NiO4,1.5838999999999994
Ga2NiP3H8NO14,3.8142000000000005
Ga2NiRu,0.0
Ga2NiS4,0.0
Ga2O3,2.4025
Ga2O3,2.0373
Ga2O3,1.8296000000000001
Ga2O3,2.1521
Ga2O3,2.0229
Ga2O3,2.047
Ga2O3,2.0077999999999996
Ga2Os,0.6654999999999998
Ga2P2H4NO8,3.0112999999999994
Ga2P2H9N2O9F,4.2977
Ga2P2H9NO11,3.4052
Ga2P3(HO3)3,5.1724000000000006
Ga2P3H11O13,5.234
Ga2P3H12(NO4)3,4.130699999999999
Ga2Pb2S5,1.9122
Ga2PbO4,3.4457000000000004
Ga2PbO4,3.4243
Ga2PbS4,2.3027999999999995
Ga2PbSe4,1.7254999999999998
Ga2PbSe4,2.0313
Ga2Pd5,0.0
Ga2PdBr8,1.5761999999999998
Ga2PdI8,1.4176
Ga2Pt,0.0
Ga2RhC4Cl7O4,2.0192
Ga2Ru,0.12680000000000025
Ga2RuPt,0.0
Ga2RuRh,0.0
Ga2S3,1.3536000000000001
Ga2S3,1.8097000000000003
Ga2S3,1.7106
Ga2S5N5Cl7,2.3613
Ga2Sb2H16C4S7N2,2.7559
Ga2SbTe4Cl7,1.2308999999999999
Ga2Se2O7,3.4975
Ga2Se3,0.5122999999999998
Ga2Se3,1.0435999999999999
Ga2SeS,1.1789
Ga2SiGe2S5O24,1.8950999999999998
Ga2SiSn2S5O24,2.0263999999999998
Ga2Sn2S5,1.6968
Ga2Sn3N4,0.5202999999999998
Ga2SnGeS6,0.9682
Ga2Te2Br7,1.2944
Ga2Te2Cl7,1.4191
Ga2Te2MoO10,3.1844
Ga2Te3,0.18299999999999983
Ga2Te3,0.3640000000000001
Ga2Te3,0.0
Ga2Te3,0.6375000000000002
Ga2Te3(HO2)6,3.7626999999999997
Ga2Te4O11,3.5124999999999997
Ga2Te5,0.9609000000000001
Ga2TeO6,0.7341000000000006
Ga2TeS2,2.0196
Ga2TeSe2,1.6141000000000003
Ga2WO6,2.192
Ga2WO6,2.6266000000000003
Ga2WO6,1.7670999999999997
Ga2WO6,3.1372
Ga3(Ni10B3)2,0.0
Ga31Mo6,0.0
Ga3Ag,0.0
Ga3Au,0.0
Ga3B4Pt9,0.0
Ga3Bi,0.0
Ga3Bi5Cl12,1.8012000000000001
Ga3Bi5Cl12,1.813
Ga3Cl7,4.1427
Ga3Co,0.0
Ga3Co4Ge,0.0
Ga3Cu,0.0
Ga3Cu3(Te2Se)2,0.10119999999999996
Ga3Cu3(Te2Se)2,0.08939999999999948
Ga3Cu3SiSe8,0.6880999999999999
Ga3Fe,0.0
Ga3Fe4Co8Si,0.0
Ga3Ge,0.0
Ga3GePt8,0.0
Ga3Hg,0.0
Ga3Ir,0.0
Ga3NO3,1.0799999999999998
Ga3NO3,0.9661000000000002
Ga3NO3,0.8802999999999999
Ga3NO3,1.6791
Ga3NO3,1.0046999999999997
Ga3NO3,2.3491999999999997
Ga3NO3,0.9393
Ga3NO3,1.0145
Ga3NO3,0.9003000000000001
Ga3NO3,0.0009000000000001229
Ga3Ni12Sn,0.0
Ga3Ni13Ge6,0.00509999999999966
Ga3Ni2,0.0
Ga3Ni27B14,0.0
Ga3Ni5,0.0
Ga3Ni5Ge2,0.0
Ga3Ni5Sn2,0.0
Ga3O5,0.0
Ga3Os,0.6769999999999996
Ga3P3H6CNO13,0.5267
Ga3PO7,3.1305000000000005
Ga3Pb,0.0
Ga3Pb5F19,4.4684
Ga3Pd5,0.0
Ga3Pd7,0.0
Ga3Pt2,0.0
Ga3Pt5,0.0
Ga3Re,0.0
Ga3Rh,0.0
Ga3Ru,0.0
Ga3Sb,0.0
Ga3Sb7(S4Cl7)2,2.0643000000000002
Ga3Si5P10H36C12N4Cl11,3.1262
Ga3SiNi4,0.0
Ga3Sn,0.0
Ga3Tc,0.0
Ga3Te,0.0
Ga3Te3As,0.023400000000000087
Ga3Te3As,0.0
Ga3Te3Br,1.3147
Ga3Te3Cl,1.3323000000000003
Ga3Te3I,1.2590999999999997
Ga3Te9Pd32,0.030899999999999928
Ga40AgMo8,0.0
Ga40CuMo8,0.0
Ga40GeMo8,0.0
Ga40Mo8Au,0.0
Ga40Mo8C,0.0
Ga40Mo8S,0.0
Ga40SnMo8,0.0
Ga41Mo8,0.0
Ga41N11O45,0.029200000000000337
Ga4B2O9,2.6854999999999998
Ga4B2O9,3.2219
Ga4Bi2O9,2.8053
Ga4Bi2O9,2.8782
Ga4Bi3As,0.0
Ga4BiAs3,0.0
Ga4BiAs3,0.10789999999999988
Ga4Cu9,0.0
Ga4Fe3,0.0
Ga4Ge(PbS3)4,2.3669999999999995
Ga4GeO8,2.0568999999999997
Ga4GeS4,1.7283000000000004
Ga4H12C15O31,0.7539000000000002
GdCuGe,0.0
GdCuO3,0.0
GdCuPb,0.0
GdCuS2,0.9113000000000007
GdCuSb2,0.0
GdCuSe2,0.6894
GdCuSe2ClO6,0.754
GdCuSeO,0.0
GdCuSi,0.0
GdCuSn,0.0
GdDy,0.0
GdDy3Ni4,0.0
GdDyAl4,0.0
GdDyC4,0.0
GdDyIn2,0.0
GdDyIr2,0.0
GdDyNi2,0.0
GdDyRh2,0.0
GdDyTl2,0.0
GdDyZn2,0.0
GdEr3,0.0
GdEr4Al15,0.0
GdErAl6,0.0
GdErCo4,0.0
GdErHg2,0.0
GdErIn2,0.0
GdErIr2,0.0
GdErO3,3.0971
GdErRh2,0.0
GdErRu2,0.0
GdErZn2,0.0
GdF3,2.8621999999999996
GdFe10Mo2N,0.0
GdFe11W,0.0
GdFe2,0.0
GdFe2BiO6,1.3175999999999997
GdFe2SiC,0.0
GdFe3(BO3)4,2.2914999999999996
GdFe4(BiO4)3,1.6060999999999996
GdFe4B,0.0
GdFe5,0.0
GdFe5P3,0.0
GdFeB4,0.0
GdFeC2,0.0
GdFeNi4,0.0
GdFeO3,0.0
GdGa,0.0
GdGa2,0.0
GdGa2Co,0.0
GdGa3,0.0
GdGa3(BO3)4,2.6825
GdGa3Os,0.0
GdGa3Ru,0.0
GdGa6,0.0
GdGaGe2O7,2.7932999999999995
GdGaI,0.0
GdGaO3,3.3962000000000003
GdGaPd2,0.0
GdGaRh2,0.0
GdGe,0.0
GdGe2,0.0
GdGeIr,0.0
GdGePt,0.0
GdGeRh,0.0
GdGeRu,0.0
GdH(SeO4)2,2.8802
GdH12(ClO2)3,2.9290000000000003
GdH18(IO3)3,2.0874
GdH18C3S3(O2F)9,5.9201
GdH18C4N6Cl3O8,3.1385
GdH2,0.0
GdH22C7NCl2O9,2.9811
GdH2ClO2,3.0368
GdH2I3O10,3.1717000000000004
GdH3,0.0
GdH6C2ClO7,2.8345000000000002
GdH6C4NO9,2.9524999999999997
GdH6C6Cl3(O3F2)3,3.0035
GdH7C2SO8,2.8774
GdH9C5(NO4)2,3.0353
GdHCO4,2.8483
GdHO2,3.0714000000000006
GdHSO5,2.9383
GdHSe,0.5979000000000001
GdHfF7,4.4446
GdHg,0.0
GdHg3,0.0
GdHo3,0.0
GdHoAl6,0.0
GdHoIr2,0.0
GdHoTl2,0.0
GdIO,0.25229999999999997
GdIn,0.0
GdIn2Cl5,1.1082
GdIn2Cu9,0.0
GdIn2Ni9,0.0
GdIn2Rh,0.0
GdIn3,0.0
GdIn5Rh,0.0
GdInAu,0.0
GdInAu2,0.0
GdInCu2,0.0
GdInCu4,0.0
GdInIr,0.0
GdInNi4,0.0
GdInO3,1.7714000000000003
GdInO3,2.586
GdInPd,0.0
GdInPd2,0.0
GdInPt,0.0
GdInPt2,0.0
GdInPt4,0.0
GdInRh,0.0
GdIr3,0.0
GdLuAg2,0.0
GdLuAl4,0.0
GdLuCu2,0.0
GdLuIr2,0.0
GdLuO3,3.1346
GdLuRh2,0.0
GdLuRu2,0.0
GdMg,0.0
GdMg(BO2)5,2.7985999999999995
GdMg2,0.0
GdMg2Ag,0.0
GdMg3,0.0
GdMg3Ni8,0.0
GdMgAg2,0.0
GdMgAu,0.0
GdMgCd2,0.0
GdMgGa,0.0
GdMgHg2,0.0
GdMgIn,0.0
GdMgNi4,0.0
GdMgPd,0.0
GdMgPt,0.0
GdMgRh2,0.0
GdMgTl,0.0
GdMgZn2,0.0
GdMn12,0.0
GdMn2O4,0.0
GdMn2O5,1.1582
GdMn4(CuO4)3,0.0
GdMnB4,0.0
GdMnGe,0.0
GdMnGe2O7,1.2932000000000001
GdMnO3,0.4040999999999997
GdMnSi,0.0
GdMoBrO4,0.0
GdMoC2,0.0
GdMoClO4,2.4595000000000002
GdMoO4F,3.371
GdMoO5,0.035699999999999954
GdN,0.0
GdNb5Ag2O15,1.9167
GdNbO4,0.20720000000000027
GdNi,0.0
GdNi(BO2)5,3.132
GdNi2,0.0
GdNi2B2C,0.0
GdNi3,0.0
GdNi4B,0.0
GdNi5,0.0
GdNiAs,0.0
GdNiBi,0.0
GdNiC2,0.0
GdNiGe3,0.0
GdNiO3,0.0
GdNiPb,0.0
GdNiSb,0.0
GdO,0.0
GdO2,0.0
GdOF,3.3747
GdOF,3.2028
GdOF,2.9255999999999998
GdOF,3.2384
GdOs2,0.0
GdP,0.0
GdP2H9O10,2.8792
GdP2H9O11,2.9608
GdP4H4NO12,5.297700000000001
GdP5,0.0
GdP5O14,3.1654
GdPH5CO7,3.0162
GdPO4,3.2910999999999997
GdPO4,2.6130000000000004
GdPPd,0.0
GdPPt,0.0
GdPS,0.2726999999999995
GdPS4,1.4795000000000003
GdPaO4,2.0697
GdPaRu2,0.0
GdPaTc2,0.0
GdPb3,0.0
GdPbAu,0.0
GdPd,0.0
GdPd3,0.0
GdPt,0.0
GdPt2,0.0
GdPt3,0.0
GdPtF7,2.1773
GdReB4,0.0
GdRh,0.0
GdRh2,0.0
GdRh3,0.0
GdRh3C,0.0
GdRh5,0.0
GdRu2,0.0
GdRuC2,0.0
GdS,0.0
GdS2,0.0
GdS2,0.1922000000000006
GdSBr,1.6455
GdSClO4,1.6219000000000001
GdSF,0.0
GdSI,1.4871999999999999
GdSO4F,0.22260000000000002
GdSb,0.0
GdSbMo2O9,2.7112
GdSbO4,1.6361999999999997
GdSbPd,0.0
GdSbPt,0.0
GdSbS,0.0
GdScGe,0.0
GdScO3,3.1418000000000004
GdScS3,1.1773999999999996
GdScSi,0.0
GdSe,0.0
GdSe2,0.0
GdSeClO3,2.993
GdSi,0.0
GdSi2,0.0
GdSi2Ni,0.0
GdSi2Rh3,0.0
GdSi3Ir,0.0
GdSi3Ni8,0.0
GdSiAg,0.0
GdSiO4,0.0
GdSiPd,0.0
GdSiPt,0.0
GdSiPt2,0.0
GdSiRu,0.0
GdSn2,0.0
GdSn3,0.0
GdSnAu,0.0
GdSnF7,4.5976
GdSnGe,0.0
GdSnPd,0.0
GdSnPd2,0.0
GdSnPt,0.0
GdSnPt2,0.0
GdTa3O9,2.0074
GdTa3O9,2.3374
GdTa3O9,2.4874
GdTa3O9,2.8865
GdTa4O12,0.0
GdTa7O19,2.4964
GdTaO4,3.3217000000000003
GdTaO4,0.26270000000000016
GdTe,0.0
GdTe2,0.0
GdTe2ClO5,0.3767000000000005
GdTh3,0.0
GdThN2,0.0
GdThRu2,0.0
GdTi2CdO6F,1.3352000000000004
GdTiCdSbO7,2.5972
GdTiCdSbO7,2.3292
GdTiClO3,2.9895
GdTiFe11C,0.0
GdTiFe9Si2,0.0
GdTiGe,0.0
GdTiNbBi2O9,2.6544000000000003
GdTiO3,0.0
GdTl,0.0
GdTl(MoO4)2,2.9359
GdTl(WO4)2,2.9492000000000003
GdTl3,0.0
GdTlPd,0.0
GdTlS2,0.8492000000000002
GdTlS2O9,0.1875
GdTlSe2,0.47409999999999997
GdTlTe2,0.05860000000000021
GdTlZn,0.0
GdTm(FeNi4)2,0.0
GdTmCd2,0.0
GdTmIr2,0.0
GdTmO3,3.1590000000000003
GdUAl4,0.0
GdUC4,0.0
GdUN2,0.0
GdV(SeO4)2,2.0264
GdV2Fe10N,0.0
GdVB4,0.0
GdVO3,0.0
GdVO4,2.7181
GdWBrO4,0.6918
GdWC2,0.0
GdWClO4,2.5471000000000004
GdWO5,0.08499999999999999
GdY(CoB)4,0.0
GdY(FeO3)2,1.5830999999999995
GdY(WO4)3,3.2727
GdY3,0.0
GdY3(FeO3)4,0.38260000000000005
GdY3V4O16,2.9459
GdYAl4,0.0
GdYCo4,0.0
GdYCo6,0.0
GdYCu2,0.0
GdYCu4,0.0
GdYH4,0.0
GdYHg2,0.0
GdYIr2,0.0
GdYO2,0.0
GdYRh2,0.0
GdYScSbO7,2.8116999999999996
GdYV2O8,2.9628
GdZn,0.0
GdZn2,0.0
GdZnAsO,0.6654999999999998
GdZnGa,0.0
GdZnGe,0.0
GdZnIn,0.0
GdZnPO,0.5757000000000003
GdZnPd,0.0
GdZnRh,0.0
GdZnSi,0.0
GdZr,0.0
GdZr3F15,4.6922999999999995
GdZr3F15,4.4567
GdZr6(PO4)9,2.0873
GdZrF7,4.4744
GdZrRu2,0.0
GdZrSb,0.0
Ge,0.0
Ge,1.1428
Ge,0.34330000000000016
Ge(Bi3O5)4,2.3762
Ge(BiTe2)2,0.49620000000000086
Ge(BrF5)2,2.9063
Ge(BrF5)2,2.5421
Ge(PbS2)2,1.9788000000000001
Ge(PbS2)2,2.0309
Ge(SF6)2,4.9704999999999995
Ge(SbTe)4,0.09919999999999973
Ge(SbTe2)2,0.19150000000000045
Ge(SbTe2)2,0.2427999999999999
Ge(SbTe2)2,0.0
Ge(SeO3)2,2.8651
Ge(SeO3)2,3.728
Ge(Te2As)2,0.3594999999999997
Ge(TeO3)2,3.5557999999999996
Ge(TePd4)2,0.01159999999999961
Ge(WO3)6,0.0
Ge11N11O5,0.0
Ge12As11I4,0.0
Ge13Sb13Te32,0.0
Ge19(AsBr)4,1.4249000000000005
Ge19(AsI)4,1.0131000000000001
Ge19(PBr)4,1.4055
Ge19(PCl)4,1.6502000000000003
Ge19(PI)4,1.0766000000000004
Ge19(SbBr)4,1.2834000000000003
Ge19(SbI)4,1.1306000000000003
Ge2(WO3)9,0.0
Ge22Rh17,0.0
Ge23Mo13,0.0
Ge2As2O7,3.1908000000000003
Ge2Bi2Te5,0.5606999999999998
Ge2Bi2Te5,0.056199999999999584
Ge2BiO6,0.0
Ge2BiO6,0.01319999999999999
Ge2Mo,0.0
Ge2MoO6,1.5225999999999997
Ge2MoO6,1.7760000000000002
Ge2N2O,0.5717000000000008
Ge2N2O,1.8284999999999996
Ge2N2O,2.4911000000000003
Ge2N2O,2.6165
Ge2N2O,2.3691000000000004
Ge2N2O,2.3193
Ge2N2O,2.3947000000000003
Ge2N2O,2.4301999999999997
Ge2N2O,1.7353
Ge2N2O,2.3442
Ge2Os,0.0
Ge2P2SO12,2.7607999999999997
Ge2Pb5SO12,2.9279
Ge2Pt,0.0
Ge2Pt3,0.0
Ge2RuC4(Cl3O2)2,3.1001
Ge2RuC4(Cl3O2)2,3.0953
Ge2S3Br2,2.3991
Ge2S3I2,2.2528
Ge2Sb2Te5,0.2878999999999996
Ge2Sb2Te5,0.018899999999999473
Ge2Sb2Te5,0.0
Ge2SbO6,0.0
Ge2SbO6,0.0026999999999999247
Ge2SeN2,1.6955
Ge2SeS,1.1343000000000005
Ge2Te5As2,0.40920000000000023