formula,band_gap
Ac,0.0
Ac2AgIr,0.0
Ac2AgPb,0.0
Ac2CdGa,0.0
Ac2CdGe,0.0
Ac2CdHg,0.0
Ac2CdSn,0.0
Ac2CuGe,0.0
Ac2CuIr,0.0
Ac2CuRu,0.0
Ac2CuSi,0.0
Ac2CuSn,0.0
Ac2GaCu,0.0
Ac2GaSi,0.0
Ac2GePd,0.0
Ac2HgGe,0.0
Ac2InGa,0.0
Ac2IrAu,0.0
Ac2IrPd,0.0
Ac2IrRh,0.0
Ac2Mg,0.0
Ac2MgGa,0.2016
Ac2MgPb,0.0
Ac2MgSn,0.0
Ac2MgTl,0.22000000000000064
Ac2NiGe,0.0
Ac2NiIr,0.0
Ac2O3,3.5225999999999997
Ac2S3,2.2729
Ac2S3,3.0275000000000003
Ac2SiAu,0.0
Ac2SiHg,0.0
Ac2SiPd,0.0
Ac2SnHg,0.0
Ac2TlCd,0.0
Ac2TlIn,0.0
Ac2TlSn,0.0
Ac2ZnAu,0.0
Ac2ZnGa,0.0
Ac2ZnGe,0.0
Ac2ZnHg,0.0
Ac2ZnIn,0.0
Ac2ZnIr,0.0
Ac2ZnSi,0.0
Ac2ZnSn,0.0
Ac3Au,0.0
Ac3Cd,0.0
Ac3Ce,0.0
Ac3Dy,0.0
Ac3Er,0.0
Ac3Eu,0.0
Ac3Hg,0.0
Ac3Ho,0.0
Ac3In,0.0
Ac3La,0.0
Ac3Lu,0.0
Ac3Nd,0.0
Ac3Pm,0.0
Ac3Pr,0.0
Ac3Sc,0.0
Ac3Si,0.0
Ac3Sm,0.0
Ac3Sn,0.0
Ac3Tb,0.0
Ac3Th,0.0
Ac3Tl,0.0
Ac3Tm,0.0
Ac3Y,0.0
Ac3Zn,0.0
AcAg,0.0
AcAg2Pb,0.0
AcAg2Sn,0.0
AcAg3,0.0
AcAgAu2,0.0
AcAgHg2,0.0
AcAgTe2,0.07939999999999969
AcAl3,0.0
AcAlO3,4.1024
AcAu3,0.0
AcBiAu2,0.0
AcBr3,4.103299999999999
AcBrO,4.241
AcCd3,0.0
AcCdAg2,0.0
AcCdAu2,0.0
AcCdHg2,0.0
AcCdRh2,0.0
AcCe3,0.0
AcCeMg2,0.0
AcCl3,5.0865
AcClO,4.4451
AcCrO3,2.0031000000000008
AcCu3,0.0
AcCuO3,0.0
AcDy3,0.0
AcEr3,0.0
AcEu3,0.0
AcEuAu2,0.0
AcEuMg2,0.0
AcEuZn2,0.0
AcF3,7.4101
AcF3,6.162600000000001
AcFeO3,0.9887999999999995
AcGa3,0.0
AcGaO3,2.895900000000001
AcGaTe2,0.49099999999999966
AcGe3,0.0
AcH2,0.0
AcH3,0.6406999999999998
AcHg3,0.0
AcHgAu2,0.0
AcHgRh2,0.0
AcHgTe2,0.0
AcI3,2.5886
AcIn3,0.0
AcInAg2,0.0
AcInAu2,0.0
AcInHg2,0.0
AcInTe2,0.3799000000000001
AcLa,0.0
AcLa3,0.0
AcLaCd2,0.0
AcLaMg2,0.0
AcMg,0.0
AcMg149,0.21850000000000014
AcMg3,0.0
AcMg5,0.0
AcMgCd2,0.0
AcMgHg2,0.0
AcMgO3,0.0
AcMgTl2,0.0
AcMgZn2,0.0
AcMnO3,0.0
AcN,0.0517000000000003
AcNd3,0.0
AcNdMg2,0.0
AcNiO3,0.0
AcO,0.0
AcOF,4.256600000000001
AcPbAu2,0.0
AcPdO3,0.0
AcPm3,0.0
AcPr3,0.0
AcPrMg2,0.0
AcRh2Pb,0.0
AcSbAu2,0.0
AcSc3,0.0
AcScO3,3.3847000000000005
AcSe3,0.0
AcSi3,0.0
AcSm3,0.0
AcSnAu2,0.0
AcSnHg2,0.0
AcSnPd2,0.0
AcTb3,0.0
AcTe3,0.0
AcTh,0.0
AcTh3,0.0
AcTiO3,0.0
AcTlAg2,0.0
AcTlAu2,0.0
AcTlHg2,0.0
AcTlRh2,0.0
AcTlTe2,0.6253000000000002
AcVO3,0.0
AcY3,0.0
AcZn2Cd,0.0
AcZn2In,0.0
AcZn3,0.0
AcZnAu2,0.0
Ag,0.0
Ag(AuF4)2,0.25849999999999973
Ag(AuS)2,0.0
Ag(BCl)6,2.6955
Ag(Bi2S3)3,0.0
Ag(H7O4)2,0.0
Ag(Mo3S4)2,0.0
Ag(Mo3Se4)2,0.0
Ag(MoSe)3,0.0
Ag(OsO3)2,0.0
Ag(Te5Au2)2,0.0
Ag(TeMo)6,0.0
Ag(W3Br7)2,0.0
Ag10Te4Br3,0.774
Ag10Te4Br3,0.8722000000000003
Ag10Te4BrCl,0.2208000000000001
Ag11Hg9,0.0
Ag12Sn7H16(Se11N2)2,0.22229999999999994
Ag13(BiI4)14,0.0
Ag13(PbO3)6,0.0
Ag13As3(IO3)4,0.3703000000000001
Ag13Bi15I64,0.0
Ag13OsO6,0.0
Ag14H8I4(OF2)5,0.0
Ag15(BiI4)16,0.0
Ag15Bi7I40,0.0
Ag15P4S16Cl3,1.2258
Ag15S5I4Br,0.5666000000000002
Ag16HgAs4S15,1.1012
Ag2(RhS)15,0.0
Ag25(BiO6)3,0.050899999999999945
Ag2As2O7,0.0
Ag2AsS2,0.5615000000000001
Ag2B8O13,2.9324
Ag2B8O13,3.2651
Ag2B8O13,2.858
Ag2Bi2S3Cl2,1.6367999999999996
Ag2Bi2SeS3,0.18899999999999917
Ag2BiO3,0.3872
Ag2BiO3,0.0
Ag2BiO3,0.5211999999999999
Ag2BiSb(TeSe)2,0.0
Ag2BiSbSe4,0.0
Ag2BiSbTe4,0.0
Ag2Br3,0.0
Ag2BrNO3,1.6045
Ag2CO3,0.44999999999999996
Ag2CO3,0.4558
Ag2CO3,0.47360000000000024
Ag2CO3,0.7489999999999999
Ag2CO3,0.4907999999999999
Ag2Cl3,0.0
Ag2F,0.0
Ag2F3,0.0
Ag2F5,0.0
Ag2Ge(S2O7)3,2.828
Ag2Ge2O5,0.7502
Ag2GeO3,0.2116
Ag2GeO4,0.0
Ag2GePbS4,1.3699000000000003
Ag2GeS3,0.46460000000000035
Ag2GeSe3,0.1251
Ag2H12C3S3(BrN3)2,2.7767
Ag2H12S(NO)4,2.9412000000000003
Ag2H16O9,2.2358
Ag2H2IOF,1.4591
Ag2H3IO6,0.6966000000000001
Ag2H4(SO4)3,2.8821
Ag2H6PdS2(NO3)2,1.8948999999999998
Ag2H8C2S2N5ClO3,2.4575
Ag2Hg,0.0
Ag2Hg(SeO3)2,1.8132
Ag2Hg2(TeO4)3,0.13580000000000014
Ag2Hg3,0.0
Ag2Hg3P4Br3,0.8896000000000002
Ag2Hg5,0.0
Ag2Hg7(As2I3)2,0.6403999999999999
Ag2Hg7(P4Br3)2,0.7716000000000003
Ag2Hg7(P4I3)2,0.7439
Ag2HgGeS4,0.44410000000000016
Ag2HgI4,1.2763999999999998
Ag2HgI4,0.0
Ag2HgI4,0.08719999999999972
Ag2HgI4,1.1003999999999998
Ag2HgO2,0.4102999999999999
Ag2HgS2,0.4190999999999998
Ag2HgSI2,1.2212000000000003
Ag2INO3,1.4835
Ag2IO5,0.0
Ag2IO6,0.0
Ag2Mo(I2O7)2,1.9610999999999996
Ag2Mo2O7,1.5567
Ag2Mo2O7,1.8834
Ag2Mo3SeO12,1.5519
Ag2MoO4,1.8730999999999998
Ag2NClO3,1.7100000000000002
Ag2O,0.0
Ag2O3,0.0
Ag2O3,0.347
Ag2P2H2O7,2.1792
Ag2P2PbO7,2.3697
Ag2P2PdO7,1.1667999999999998
Ag2PHO4,1.3274000000000001
Ag2PO3F,1.0803
Ag2PS3,1.7759000000000005
Ag2PS3,1.4970999999999997
Ag2PSe3,0.8588
Ag2Pb8Cl4O7,1.9106
Ag2PbI4,0.9013999999999998
Ag2PbO2,1.3818000000000001
Ag2Pd(NO2)4,1.8403999999999998
Ag2PdCl4,0.9506000000000001
Ag2PdO2,0.0
Ag2S,0.0
Ag2S,1.1839999999999997
Ag2S,1.2299
Ag2S,0.9753000000000001
Ag2S,1.0778999999999996
Ag2S,1.3001000000000003
Ag2S,0.6242999999999999
Ag2S,1.4427999999999999
Ag2S,1.2959
Ag2S,0.12020000000000008
Ag2S,1.1894
Ag2S,0.3700999999999999
Ag2S,1.0006999999999997
Ag2S2O7,2.3015999999999996
Ag2SO3,2.3467000000000002
Ag2SO4,1.2289
Ag2SO4,1.321
Ag2Se,1.7115
Ag2Se,0.09080000000000021
Ag2Se,0.19159999999999977
Ag2Se,0.0
Ag2Se,0.9678
Ag2Se,0.13839999999999986
Ag2SeO3,1.7022
Ag2SeO4,0.4263999999999999
Ag2SeO4,0.48150000000000004
Ag2Sn(S2O7)3,2.4703999999999997
Ag2SnBiS4,0.0
Ag2SnBiSe4,0.0
Ag2SnHgS4,0.015699999999999825
Ag2SnHgSe4,0.0
Ag2SnO3,0.13660000000000005
Ag2SnO3,0.0
Ag2SnSe3,0.05860000000000021
Ag2Te,0.0
Ag2Te(H2O3)2,0.7501000000000002
Ag2Te2O7,0.0
Ag2Te3Mo3O16,2.0202999999999998
Ag2Te4MoO12,2.1281000000000003
Ag2Te4O11,1.1402
Ag2TeO3,1.6272999999999995
Ag2TeO4,0.022099999999999564
Ag2TeO4,0.00010000000000021103
Ag2TeO4,0.020399999999999974
Ag2TeO4,0.0
Ag2TeO6,0.28080000000000005
Ag2TeS3,1.2999
Ag2W2O7,1.9614000000000003
Ag2WO4,2.0439
Ag2WO4,1.9382000000000001
Ag2WS4,0.8692999999999997
Ag3(AsO4)2,0.0
Ag3(Bi2Br3)7,0.01429999999999998
Ag3(PO4)2,0.0
Ag33(PbO3)14,0.0
Ag3As,0.0
Ag3AsF12,0.09939999999999993
Ag3AsO4,0.3175000000000001
Ag3AsO4,0.0
Ag3AsS3,1.1770999999999998
Ag3AsS3,1.6989
Ag3AsS3,1.6277999999999997
Ag3AsS4,0.35760000000000014
Ag3AsSe3,0.8452999999999999
Ag3AsSe3,0.8906000000000001
Ag3Au,0.0
Ag3AuS2,0.1802999999999999
Ag3AuS2,1.5633999999999997
Ag3AuS2,0.3932000000000002
Ag3AuSe2,0.023499999999999854
Ag3AuSeS,0.09489999999999998
Ag3B5O9,1.8021
Ag3BO3,0.0
Ag3BO3,0.8717000000000001
Ag3Bi,0.0
Ag3Bi7S12,0.6774999999999993
Ag3Bi8S13,0.0
Ag3BiO3,1.5250000000000004
Ag3F8,0.30689999999999995
Ag3Ge,0.0
Ag3Ge5P6,0.5388000000000002
Ag3H13SeN4O5,1.9348999999999998
Ag3Hg,0.0
Ag3IrO4,0.0
Ag3Mo3AsO13,1.7696
Ag3N5O6,1.9021
Ag3O,0.0
Ag3O4,0.0
Ag3P11,0.8305999999999996
Ag3P3HO9,0.005300000000000082
Ag3P3O10,0.0
Ag3P6H12N3O19,0.0
Ag3PO4,0.4209999999999998
Ag3PO4,0.17849999999999966
Ag3PS4,0.9914000000000001
Ag3PSe4,0.1743999999999999
Ag3Pb,0.0
Ag3Pd,0.0
Ag3Pd13Pb6,0.0
Ag3Pt,0.0
Ag3RuO4,0.0
Ag3S,0.0
Ag3S4(O3F)4,0.0
Ag3SBr,0.2964
Ag3SBr,0.39870000000000005
Ag3SBr,0.39769999999999994
Ag3SI,0.4136000000000002
Ag3SI,0.7261000000000002
Ag3SI,0.6242999999999999
Ag3SI,0.2474000000000003
Ag3SI,0.2569999999999997
Ag3SI,0.26239999999999997
Ag3SI,0.3216000000000001
Ag3SI,0.3738999999999999
Ag3SI,0.3330000000000002
Ag3Sb,0.0
Ag3Sb4F24,0.012499999999999956
Ag3SbO4,0.0
Ag3SbS3,1.8371
Ag3SbS3,0.9521000000000002
Ag3SbS3,1.5142000000000002
Ag3SbTe4,0.0
Ag3Se,0.0
Ag3Sn,0.0
Ag3Sn2(GeP2)3,0.21549999999999958
Ag3SnP7,0.5034000000000001
Ag3Te2Au,0.17250000000000032
Ag3Te32Au13,0.0
Ag3TeIO4,0.1964999999999999
Ag4AuS2,0.0
Ag4Bi2O5,1.6389000000000005
Ag4GeO4,0.0
Ag4Hg4S4BrCl3,1.5993999999999997
Ag4Hg5S5IBrCl2,0.8686999999999998
Ag4HgGe2S7,0.46309999999999985
Ag4Mo2Se3O16,1.6559000000000001
Ag4P2S7,1.6556000000000002
Ag4PIO4,0.6932
Ag4Se(IO2)2,0.7545000000000002
Ag4Sn2(HgSe3)3,0.40349999999999997
Ag4Sn3S8,0.22930000000000028
Ag4Te(PO7)2,0.0807
Ag4TeO5,0.0041999999999999815
Ag4TeSO4,0.6883000000000001
Ag5(PbO3)2,0.0
Ag5(Sn3S8)2,0.0
Ag5Au3S4,0.9308999999999998
Ag5Au3S4,1.0997
Ag5BiO4,1.459
Ag5GeO4,0.5958000000000001
Ag5Hg4P8Cl5,0.9788000000000001
Ag5HgSbO6,0.0
Ag5IO6,0.020500000000000185
Ag5P(S2Cl)2,1.2689
Ag5PSeO4,0.3075999999999999
Ag5Sb23(PbS4)12,0.0
Ag5SbS4,0.5945
Ag5Te2Br,0.20789999999999997
Ag5Te2Cl,0.23160000000000025
Ag5Te2Cl,0.19849999999999968
Ag5TePO4,0.47129999999999983
Ag6Au2Se3S,0.03729999999999967
Ag6Ge(S2Br)2,0.5586
Ag6Ge(S2Cl)2,0.6229
Ag6Ge2O7,0.009700000000000042
Ag6GeSO8,0.0
Ag6Hg(P10I)2,1.0085000000000006
Ag6HgGeSe6,0.011200000000000099
Ag6HgNO11,0.0
Ag6Mo10O33,1.8778000000000001
Ag6Mo10O33,1.771
Ag6Mo2ClO7F3,1.5595
Ag6P6O19,0.4276
Ag6S2IBr,0.5861000000000001
Ag6SbAsS6,1.4419999999999997
Ag6SnSb,0.0
Ag6Te4W3O20,2.4678
Ag7(PbO3)3,0.0
Ag7(SI)2,0.0
Ag7AsS6,0.5009999999999999
Ag7AsSe6,0.0
Ag7NO11,0.0
Ag7P3S11,1.4065999999999996
Ag7PS6,0.9116
Ag7PSe6,0.4411999999999998
Ag7Sb9O25,0.3775000000000004
Ag8Ge3O10,0.08620000000000005
Ag8GeS6,0.6102000000000003
Ag8GeSe6,0.0
Ag8GeTe6,0.0
Ag8GeTe6,0.07189999999999985
Ag8GeTe6,0.0387000000000004
Ag8Hg(AsO5)2,0.0484
Ag8Sb5As3S16,1.0255
Ag8SnS6,0.5350999999999999
Ag8SnSe6,0.0009999999999998899
Ag9(PbO3)4,0.0
Ag9(SI)4,0.0
Ag9Ge2IO8,0.0
Ag9Ge2NO11,0.07099999999999995
Ag9P14(OF)28,0.026499999999999968
Ag9Te4Br3,0.0
AgAs(S8F3)2,2.7366
AgAs(SeF2)3,1.6736
AgAs(XeF5)2,1.4049
AgAs3H2O9,0.8362
AgAsBr4,1.0937000000000001
AgAsC4S8(N2F3)2,2.4217
AgAsF6,1.6805999999999999
AgAsF7,0.0
AgAsO2,2.3783
AgAsO3,0.2921
AgAsO3,0.49849999999999994
AgAsO3,0.5616999999999999
AgAsPbS3,1.3859999999999997
AgAsS,0.0
AgAsS2,1.4968
AgAsS2,1.5178999999999996
AgAsSe,0.0
AgAsSe2,0.0
AgAu,0.0
AgAu(IO3)4,1.2572999999999999
AgAu3,0.0
AgAuCl4,0.8406
AgAuF4,1.0268000000000002
AgAuF7,0.0
AgAuO2,0.0
AgAuO2,0.5047999999999999
AgAuO3,0.24230000000000018
AgAuS2,0.2197
AgB10H26C6N,3.8864
AgB11H6CBr6,3.2973
AgB3O5,2.3274000000000004
AgB5H6N2Cl5,2.7748
AgBF4,3.157
AgBF5,0.0
AgBH2OF4,3.044
AgBH8C4(N2F)4,3.7801
AgBHC12(NF2)9,3.448
AgBO2,1.2098999999999998
AgBO3,0.0
AgBTe4C(OF4)5,3.5957
AgBTe4C2(O3F10)2,2.8863000000000003
AgBi(IO3)4,2.4344
AgBi(PS3)2,1.1837999999999997
AgBi(PSe3)2,1.2778
AgBi(WO4)2,2.9907
AgBi2F12,0.3971
AgBi2S3Cl,0.7834000000000003
AgBi2Se3Cl,0.5499999999999998
AgBi2WO8,0.13790000000000013
AgBi3PbS6,0.3102999999999998
AgBi3S5,0.5262000000000002
AgBiI4,0.9912000000000001
AgBiO2,0.7818
AgBiO2,1.6897000000000002
AgBiO2,1.4247
AgBiO2,1.2491000000000003
AgBiO2,0.9563999999999999
AgBiO3,0.0
AgBiPbS3,0.0682999999999998
AgBiPd2,0.0
AgBiS2,0.49179999999999957
AgBiS2,0.23040000000000038
AgBiS2,0.5353000000000003
AgBiS2,0.3168999999999995
AgBiS2,0.0
AgBiSCl2,1.0752000000000002
AgBiSe2,0.0
AgBiSe2,0.2615999999999996
AgBiSe2,0.021099999999999675
AgBiSeS,0.0
AgBiTe2,0.0
AgBiTe3Pb,0.0
AgBiTeSe,0.0
AgBr,0.7303999999999999
AgBr,0.6990000000000001
AgBr,1.1708
AgBrO2,0.0
AgBrO2,0.2785000000000001
AgBrO3,2.383
AgBrO4,1.2702
AgBrO4,0.6979
AgBrO4,0.8743000000000001
AgC4OF9,2.3671
AgCNO,3.0696
AgCO3,0.0
AgCS(OF)3,2.7068
AgCS2(O2F)3,3.306
AgCSN,2.2796999999999996
AgCSN,2.6921999999999997
AgCl,0.9522000000000002
AgCl,0.8720000000000001
AgCl,0.44379999999999975
AgCl,0.6022000000000001
AgClO3,2.7117
AgClO3,2.3983
AgClO3,2.925
AgClO3,2.9021999999999997
AgClO4,2.8481
AgClO4,2.6793000000000005
AgClO4,2.4294
AgClO4,2.3744
AgF,0.0
AgF2,0.0
AgF3,0.2084999999999999
AgGe2N3,0.5654000000000003
AgGeBiTe3,0.0
AgGeO3,0.0
AgH,0.8512
AgH10Rh(N3O5)2,2.1401
AgH12C4S5N,1.7469999999999999
AgH12C4Se5N,1.238
AgH12C6N13O3,3.1463
AgH12N4F,3.4709000000000003
AgH14C3S3N6ClO,3.0284000000000004
AgH18C4S4BrN8O,3.103
AgH20S6N5O9,3.2499000000000002
AgH2C2N3O,3.2954
AgH2CS2N,1.9599
AgH2ClO5,2.8242
AgH2SNO3,2.8033
AgH36C15S3N6Cl,3.459
AgH36S8Br2(N3O4)3,3.1716
AgH36S8I2(N3O4)3,3.1575999999999995
AgH36S8N11O18,2.354
AgH3BrN,2.4608
AgH3CN2,3.0167
AgH3O2,1.0711
AgH4C2S2N3,2.8954
AgH4CSN2Cl,2.6044
AgH4WS4N,1.7101
AgH5S2O9,3.5225000000000004
AgH6CSN3,2.8991
AgH8C2S2BrN4,2.9647
AgH8C2S2N4Cl,0.0
AgH8C4N8F,3.5781
AgH8O5,0.29179999999999995
AgH9C2(NO)2,3.2944
AgH9O5,2.0934
AgHO2,0.0
AgHg,0.0
AgHg2AsO4,0.7385999999999999
AgHg2NO5,0.5517
AgHg2PO4,1.1892000000000003
AgHg3,0.0
AgHg3As2Cl3,0.8397
AgHg3SbO6,0.7092999999999998
AgHgAsO4,0.0
AgHgAsS3,1.2453000000000003
AgHgO2,0.0
AgHgPd2,0.0
AgHgSBr,1.2604
AgHgSI,1.3584
AgHgSI,1.1391000000000002
AgI,1.3877000000000002
AgI,0.7684000000000002
AgI,1.3674
AgI,1.5986
AgI,0.9588999999999999
AgI,1.3759000000000001
AgI,1.704
AgI2,0.0
AgI3O8,2.2937000000000003
AgI3O8,2.279
AgIO3,1.8068999999999997
AgIO3,2.4375
AgIO3,1.9765000000000001
AgIO4,0.11079999999999979
AgIrF7,0.0
AgMo12PbS16,0.0
AgMo2P3O13,2.0242999999999998
AgMo3(PO7)2,1.9584
AgMo3P3O16,1.3616
AgMo5P8O33,2.543
AgMo6(SeS)4,0.0
AgMo6Br13,2.0137
AgMo6Cl13,2.3227
AgMoAsO6,2.019
AgMoH4S4N,1.0969999999999998
AgMoO4,0.0
AgMoPO6,1.9427999999999999
AgNO2,1.7726
AgNO2,1.4382000000000001
AgNO3,1.8539
AgNO3,2.0088999999999997
AgNO3,2.1176
AgNO3,1.7204
AgO,0.0
AgO,0.11599999999999988
AgO,0.1826000000000001
AgO2F,0.49610000000000004
AgO2F,0.0
AgP(OF)2,1.9686
AgP(XeF5)2,1.3266
AgP15,1.2132000000000005
AgP2,0.6586999999999996
AgP2H8SN7O2,3.4266
AgP2H8SN7O2,3.1324
AgPF6,3.2361
AgPH6(NF3)2,3.2454
AgPHNO2,2.2209000000000003
AgPO3,1.9166
AgPO3,2.3488
AgPO4,0.0
AgPPd5,0.0
AgPPt5,0.0
AgPS3,1.3228
AgPb2Br5,1.9341
AgPb2Cl3OF,0.0
AgPb3,0.0
AgPb4ClO4,2.4109
AgPbBrO,0.1882999999999999
AgPbF6,0.21799999999999997
AgPbO2,0.03340000000000032
AgPbO2,0.14279999999999982
AgPbO3,0.0
AgPd,0.0
AgPd(IO3)3,1.4039000000000006
AgPd2Au,0.0
AgPd3Se,0.0
AgPdAu2,0.0
AgPdF6,0.0
AgPdO2,0.0
AgPt,0.0
AgPt3,0.0
AgPt4,0.0
AgPtF6,0.0
AgPtO2,0.3870999999999998
AgPtO2,0.05549999999999988
AgRh(SO4)2,1.1739000000000002
AgRhF6,0.0
AgRhO2,0.6217999999999999
AgRhO2,0.49760000000000026
AgRuF7,0.0
AgRuO3,0.0
AgRuO4,0.0
AgS2(O3F)2,0.18779999999999997
AgSO3F,2.4337
AgSO4,0.0
AgSO4,0.06519999999999992
AgSb(PbS2)2,0.09809999999999963
AgSb(S8F3)2,2.6391999999999998
AgSb(SeF3)2,1.175
AgSb(Te8Pb7)2,0.7760999999999996
AgSb2F12,0.5397999999999998
AgSb3IF24,0.2893999999999999
AgSb3PbS6,1.1056
AgSb3PbS6,0.17549999999999955
AgSb3PbS6,1.5029
AgSb3PbS6,0.7599
AgSb3PbS6,1.2338000000000005
AgSbC2N2(ClF3)2,3.1523000000000003
AgSbC2N2(ClF3)2,4.2664
AgSbF6,1.7739
AgSbH2C2(NF3)2,2.8326000000000002
AgSbO3,0.0945999999999998
AgSbO3,0.13329999999999975
AgSbO3,0.0
AgSbO3,0.28749999999999964
AgSbPbS3,0.0
AgSbPbS3,1.0857
AgSbPbS3,0.5552000000000001
AgSbS(OF3)2,2.5773
AgSbS2,1.7447999999999997
AgSbS2,1.3126999999999995
AgSbS2,0.0
AgSbS2,0.07639999999999958
AgSbS2,1.3716000000000004
AgSbS2,1.6033000000000002
AgSbSe2,0.0
AgSbSeS,0.0
AgSbTe2,0.0
AgSbTe3Pb,0.0
AgSbTe6S16(OF5)6,0.8025
AgSbTeSe,0.0
AgSbWO7,0.0
AgSe,0.0
AgSe3I,1.3963999999999999
AgSe5,0.0
AgSn3,0.0
AgSnF6,0.40559999999999996
AgSnO3,0.0
AgSnS2,0.0
AgSnSe2,0.0
AgSnTe2,0.0
AgTe,0.24110000000000031
AgTe3,0.0
AgTe3I,1.0025
AgTe4Au,0.0
AgTeNO5,2.0214
AgTeO3,1.6662000000000003
AgTeO3,1.4211
AgTeO3,1.1676000000000002
AgW2(Br3O)2,0.0
AgW3Br7,2.5046
AgW6CCl18,0.07999999999999963
AgXeF9,1.4980000000000002
Al,0.0
Al(Ag3S2)3,0.7057
Al(Ag3Se2)3,0.0
Al(BH4)3,6.2431
Al(Bi3O5)4,0.0
Al(BiCl)4,1.4598000000000002
Al(BiO3)3,0.20909999999999984
Al(C2N3)3,3.9826999999999995
Al(CoO2)2,0.0
Al(CoO2)3,0.0
Al(CoS2)2,0.0
Al(CoSi)2,0.0
Al(CrB)2,0.0
Al(CuO2)2,0.0
Al(FeB)2,0.0
Al(FeO2)2,1.0647000000000002
Al(FeO2)2,0.0
Al(FeO2)3,1.1286
Al(FeS2)2,0.0
Al(HO)3,4.9007000000000005
Al(HO)3,5.7600999999999996
Al(HO)3,5.0975
Al(HO)3,4.9076
Al(HO)3,5.0085
Al(HO)3,4.9269
Al(HO)3,5.0602
Al(HO)3,5.2187
Al(HO)3,4.9472000000000005
Al(HO)3,4.9764
Al(HO)3,5.2193000000000005
Al(HO)3,4.6615
Al(HO)3,4.8633
Al(HO)3,4.7202
Al(HO)3,4.8775
Al(HO)3,4.3037
Al(HO)3,4.5931999999999995
Al(HO)3,4.614999999999999
Al(HO)3,4.3399
Al(HO)3,4.9129000000000005
Al(HO)3,4.7632
Al(HO)3,4.9443
Al(HO)3,5.002
Al(HO)3,3.8840000000000003
Al(HO)3,4.9815000000000005
Al(HO)3,3.8282000000000003
Al(HO)3,5.081799999999999
Al(HO)3,4.697299999999999
Al(HO)3,4.5759
Al(HO)3,4.9816
Al(HO)3,4.748200000000001
Al(HO)3,3.8913
Al(HO)3,4.8222000000000005
Al(HO)3,5.0094
Al(HO)3,3.8335999999999997
Al(HO)3,4.2797
Al(HO)3,4.9382
Al(HO)3,5.8109
Al(ICl2)3,1.7106
Al(IO3)3,3.3465999999999996
Al(MoS2)12,0.0
Al(MoS2)4,0.0
Al(MoS2)4,0.11040000000000028
Al(Ni10B7)2,0.0
Al(Ni3B2)4,0.0
Al(Ni4Pt)3,0.0
Al(NiO2)2,0.14280000000000026
Al(NiO2)2,0.0
Al(NiO2)3,0.0
Al(NiS2)2,0.0
Al(PO3)3,5.8176
Al(PO3)3,5.6283
Al(PO3)3,5.625
Al(PO3)3,5.512499999999999
Al(PS3)2,0.0
Al(SeCl)4,1.1038000000000001
Al(SeCl2)2,1.3809
Al(Si2O5)2,0.0
Al(SiO3)2,0.0
Al(SiO3)2,2.9224
Al(TeCl2)2,1.3285
Al(V4Ge)3,0.0
Al(V4Si)3,0.0
Al(V4Sn)3,0.0
Al(VS2)4,0.0
Al(WF5)3,3.003
Al10Ge2O19,2.1205
Al10Si2O19,3.5784999999999996
Al10Si2O19,3.7364000000000006
Al10Si2O19,3.3810000000000002
Al10V,0.0
Al10ZnO16,4.2410000000000005
Al11(CoSi)6,0.0
Al11(PO4)12,0.062000000000000055
Al119Cr16Fe13,0.0
Al11AgO17,3.0191000000000003
Al11AgO17,3.1959999999999997
Al11Cr4,0.0
Al11H2NO17,0.22929999999999984
Al11InO17,3.6292
Al11NO15,4.052200000000001
Al11O18,0.0
Al11Re4,0.0
Al11TlO17,4.585100000000001
Al12Co4Cu,0.0
Al12Fe7,0.0
Al12Mo,0.0
Al12PbO19,4.518599999999999
Al12Re,0.0
Al12Ru,0.0
Al12Si12Ag16S5O48,0.0
Al12Tc,0.0
Al12W,0.0
Al12ZnS19,0.06729999999999947
Al13(CrSi)4,0.0
Al13(CuS8)3,0.0
Al13(CuSe8)3,0.0
Al13(TlS7)3,3.1191
Al13Co4,0.0
Al13Fe4,0.0
Al13Os4,0.0
Al13Rh4,0.0
Al13Ru4,0.0
Al13Si5H14Cl(O17F2)2,3.8563
Al13Si5H18ClO38,4.268800000000001
Al14(CuS8)3,0.0
Al14(CuSe8)3,0.0
Al14Co5Si2,0.0
Al15Fe9O32,2.1445000000000007
Al15Ni3Ge4,0.0
Al17(BC3)6,0.0
Al17(NO7)3,4.033499999999999
Al17(Re2Si)2,0.0
Al17(SiPd2)4,0.013799999999999812
Al17Mo4,0.0
Al18Co5Ni3,0.0
Al19Co6,0.0
Al19CrO30,3.6543
Al2(BiO3)3,0.0
Al2(CN2)3,2.8366
Al2(CuS2)3,0.0
Al2(CuSe2)3,0.0
Al2(FeSi)3,0.0
Al2(MoO4)3,3.5374
Al2(MoO4)3,3.5843
Al2(Ni7B2)3,0.0
Al2(PS3)3,2.2406
Al2(SO4)3,5.6887
Al2(SO4)3,6.0272
Al2(SeO4)3,3.0578000000000003
Al2(SeO4)3,2.6467
Al2(WO4)3,4.5648
Al2(WO4)3,1.7529
Al2(WO4)3,4.5569
Al2(WO4)3,4.8089
Al2(WO4)3,4.619
Al2(Zn13Pd3)3,0.0
Al2(ZnS2)3,2.7677000000000005
Al21Pd8,0.0
Al21Pt8,0.0
Al22CdO34,2.2583999999999995
Al22Mo5,0.0
Al22PbO34,3.595
Al23B50,0.0
Al23V4,0.0
Al24Tl10Cd7(SiO4)24,2.6653
Al24Zn3O40,0.0
Al27(FeNi2)2,0.0
Al2Ag2Bi2S3Cl8,1.9031999999999998
Al2AgCl5O,3.4432
Al2Au,0.0
Al2B2Ru3,0.0
Al2B3HO8,5.5664
Al2Bi7Ru(BrCl4)2,1.185
Al2Bi7Ru(BrCl4)2,1.3157
Al2BiS4,2.6364
Al2BiSe4,2.2404
Al2CO,1.7595999999999998
Al2CO,2.662799999999999
Al2Cd(Si5O12)2,2.3918999999999997
Al2Cd3(GeO4)3,2.9874
Al2Cd3(SiO4)3,2.9522999999999997
Al2CdBr8,2.9128
Al2CdCl8,3.7081999999999997
Al2CdO4,2.676
Al2CdS4,2.7262999999999997
Al2CdS4,2.4622999999999995
Al2CdSe4,2.0046999999999997
Al2CdSe4,1.2611000000000003
Al2CdTe4,1.6245000000000003
Al2Co3(SiO4)3,2.9450000000000003
Al2Co3GeO8,0.35219999999999985
Al2CoCl8,0.34319999999999995
Al2CoCl8,0.3186
Al2CoIr,0.0
Al2CoNi,0.0
Al2CoO4,3.0024000000000006
Al2CoO4,2.4719000000000007
Al2CoO4,0.0
Al2CoO4,0.030700000000000394
Al2CoO4,2.274700000000001
Al2CoOs,0.0
Al2CoRu,0.0
Al2Cr3(SiO4)3,2.3564
Al2Cr3CuS8,0.18090000000000028
Al2CrB2Mo,0.0
Al2CrCl8,0.8876
Al2CrFeCo4,0.0
Al2CrO5,0.3273999999999999
Al2CrO5,0.4480999999999993
Al2CrS4,0.0
Al2Cu,0.0
Al2Cu2Bi2S3Cl8,1.2722000000000002
Al2Cu2Ni,0.0
Al2Cu3(SiO4)3,0.12349999999999994
Al2CuCl8,0.5594
Al2CuIr,0.0
Al2CuMo,0.0
Al2CuO4,0.0
Al2CuPd,0.0
Al2CuSi2O7F2,0.6347999999999998
Al2CuSi2O8F,0.30200000000000005
Al2Fe(PO4)3,3.0241000000000002
Al2Fe2Bi2O9,2.32
Al2Fe2Bi2O9,2.4514
Al2Fe3(BiO4)3,1.7816999999999998
Al2Fe3(PO5)3,1.4325999999999999
Al2Fe3(SiO4)3,3.6412999999999993
Al2Fe3F15,2.7091
Al2Fe3Si4,0.0
Al2FeCo,0.0
Al2FeIr,0.0
Al2FeNi,0.0
Al2FeO4,0.0
Al2FeO4,2.5346
Al2FeO4,2.9314999999999998
Al2FeO4,0.03819999999999979
Al2FeO4,0.5183000000000009
Al2FeO4,2.8223000000000003
Al2FeP2(HO)18,1.982
Al2FeP2(HO)18,4.0407
Al2FeRh,0.0
Al2FeS4,0.0
Al2FeS4,0.6271000000000004
Al2Ga(PO4)3,5.0458
Al2Ga2Bi2O9,2.7318
Al2Ga2Bi2O9,2.9935000000000005
Al2GaN3,3.1754
Al2Ge(HO3)2,3.8758
Al2Ge(O2F)2,4.0658
Al2Ge2O7,3.4097999999999997
Al2H10S3O17,5.8229
Al2H12(SeO5)3,4.7445
Al2H12(SeO5)3,4.6404
Al2H15SClO13,5.3509
Al2H16S3O20,5.397799999999999
Al2H18SO15,4.9787
Al2H30Se3O28,1.0604999999999998
Al2H32S3O28,4.6645
Al2Hg3Cl8,2.4917
Al2Hg5Se8,0.1463000000000001
Al2Hg5Se8,0.22960000000000003
Al2HgO4,1.3460999999999999
Al2HgS4,1.3048999999999995
Al2HgS4,2.0244000000000004
Al2HgSe4,0.3820999999999999
Al2HgSe4,1.4253999999999998
Al2HgTe4,1.1108000000000002
Al2InN3,2.1638
Al2IrOs,0.0
Al2IrRh,0.0
Al2IrRu,0.0
Al2Mo3C,0.0
Al2Ni3,0.0
Al2Ni9Pd,0.0
Al2NiCl8,0.5434000000000001
Al2NiO4,0.0
Al2NiO4,3.5218000000000007
Al2NiO4,3.5985000000000005