formula,band_gap
As4PRh10,0.0
As4Pb8Cl6O11,2.1774999999999998
As4Pd5Pb,0.0
As4S3,2.3035
As4S3,2.471
As4S5,1.9969999999999999
As4Se3,1.6237
As5Pb3S10,0.49150000000000027
As5Pb3S10,0.055199999999999694
As5Pb3S10,0.0
As5Pb3S10,0.2796000000000003
As7Rh12,0.0
As8S9,1.7164
As9Pb5S18,0.0
As9Pb7S20,0.14300000000000068
AsAu3,0.0
AsAuO3,0.3576999999999999
AsAuO4,1.8671
AsBr3,3.1271000000000004
AsBr5F6,1.6507
AsBrKr2OF12,2.4777
AsBrOF8,3.1609000000000003
AsC2N(OF3)2,4.6508
AsC3N3F8,3.9572000000000003
AsC3S3NF11,0.5439999999999999
AsC4S4N4Cl2O2F5,1.4816
AsCS2N2OF5,2.7431
AsCSCl2F9,3.8103
AsCSF11,4.5408
AsCl2F3,2.8871
AsCl3,3.9873
AsCl3O,2.5284
AsCl5,1.4376
AsClF8,3.3906
AsClOF8,2.8596
AsF3,5.359999999999999
AsF5,4.6002
AsH10C3I,3.498
AsH12C4I3,1.7631999999999999
AsH18N3O7,4.1888
AsH25(ClO)10,1.5321
AsH2SNF10,4.6288
AsH3C(OF3)2,5.2115
AsH3C(OF3)2,5.238300000000001
AsH3C(SF2)3,2.7919
AsH3CNOF9,4.9219
AsH3OF6,4.8445
AsH4CNF8,5.0872
AsH5C2(OF3)2,5.2271
AsH5COF6,5.0561
AsH6N2F5,5.192
AsH6NO4,4.2445
AsH6NO4,4.1512
AsH6NO4,3.7763999999999998
AsH8CN3O4,3.7938
AsH9(NO2)2,3.955
AsH9C2S(NO)4,3.0929
AsHPb4(ClO)4,3.1812
AsHPbO4,3.1361000000000003
AsHPbO4,3.0015
AsI3,2.2375000000000003
AsI5F6,1.4099
AsIF12,0.6263999999999998
AsIrS,1.8630000000000004
AsIrSe,1.4699
AsKrF7,2.7596999999999996
AsN(OF3)2,2.7441999999999998
AsN(OF3)2,2.7607
AsN(OF3)2,2.6593
AsN2F7,3.2895
AsO2,0.07599999999999996
AsO2,3.3759
AsOsS,1.1795
AsOsSe,1.0029000000000003
AsP,0.0
AsP,0.4581999999999997
AsP3H18C6(SO)6,3.4175
AsPCl3OF5,4.536899999999999
AsPHBr3OF6,3.5629
AsPHCl3OF6,4.9259
AsPO4,4.576
AsPO5,2.0204
AsPOs,0.7610999999999999
AsPPt,0.7984
AsPRh4,0.0
AsPRu,0.4142999999999999
AsPb2Cl2O3,0.0
AsPb2S3I,1.8295000000000003
AsPb3,0.0
AsPbClO2,3.3353
AsPbF7,4.0652
AsPbO4,0.0
AsPd2,0.0
AsPd3,0.0
AsPd3Pb2,0.0
AsPd4,0.0
AsPd5,0.0
AsPd6Pb,0.0
AsPdS,0.0
AsPdSe,0.0
AsPtS,0.0
AsRh,0.0
AsRh2,0.0
AsRhO4,0.0
AsRhS,1.2237
AsRhSe,0.9137000000000004
AsRu,0.0
AsRuS,0.9146000000000001
AsRuSe,0.7335000000000003
AsS,0.6236000000000002
AsS,1.9737999999999998
AsS,1.9674000000000003
AsS,2.0204
AsS,1.9798000000000002
AsS,0.9440000000000001
AsS(BrF2)3,2.4875000000000003
AsS(ClF2)3,3.7778
AsS(IF3)2,1.1714
AsS2,1.2919
AsS2NF10,4.5233
AsS2NF6,2.608
AsS3(ClF2)3,0.0
AsS3(NF3)2,0.5874999999999999
AsS3(NF3)2,1.483
AsS7IF6,1.8164
AsSClOF8,3.8372
AsSClOF8,3.8249000000000004
AsSOF9,3.9252000000000002
AsSXe2(OF3)3,2.0867
AsSe,1.3679999999999999
AsSe(BrF2)3,2.5724
AsSe(ClF2)3,3.7138999999999998
AsSe(IF2)3,1.3837
AsSe2S(NF3)2,1.3533
AsSe3(BrF2)3,1.6873
AsSe3(ClF2)3,1.9559
AsSe3(NF3)2,1.2185
AsSe6IF6,1.577
AsSeI,1.2345000000000002
AsSeS2(NF3)2,1.5211
AsSeS2N2ClF6,3.0713
AsXe2BrOF12,2.6125000000000007
AsXe2F9,1.5960999999999999
AsXe2F9,1.6500000000000004
AsXe2OF10,0.2682000000000002
AsXeF11,2.0241000000000002
AsXeF7,2.7447999999999997
Au,0.0
Au(OF3)2,0.0
Au(OF3)2,0.10530000000000017
Au2O3,0.8689999999999998
Au2O3,0.7390000000000003
Au2S,1.9091
Au2Se2O7,1.1502
Au2Se3O10,0.9414
Au2Se4O11,1.4326
Au3F8,0.3012999999999999
AuBr,1.6885
AuBr,1.9716000000000002
AuBr2,0.0
AuBr3,0.7497
AuBrF6,1.6361000000000003
AuBrO2,0.7129
AuBrO2,0.0
AuCClO,3.7403000000000004
AuCClO,3.0723
AuCS2Cl3,1.8955000000000002
AuCl,1.9497
AuCl,1.9094
AuCl2,0.8978999999999999
AuCl3,1.3606
AuCl4,0.0019000000000000128
AuClO,0.9762000000000001
AuClO2,0.2618
AuClO2,0.8831
AuF3,1.5542
AuF5,0.7890000000000001
AuI,2.0942
AuI2,0.0
AuN5O14,1.7689
AuO2F,0.9596
AuS,0.0
AuS3(O3F)3,1.5564
AuSCl5,1.56
AuSCl7,1.8191
AuSO4,1.65
AuSe,0.2627999999999999
AuSe,0.0
AuSeBr,0.6302999999999999
AuSeCl7,1.7274
AuSeClO3,1.3674
AuXe2F17,1.3692000000000002
AuXeF9,0.9278
B,1.5133
B,0.0
B,1.4333999999999998
B(HO)2,4.79
B(HO)3,6.0572
B(HO)3,6.0809
B10(Pb2O7)3,3.259
B10H11C2,6.035
B10H11C2,5.749499999999999
B10H13,3.3318000000000003
B10H13,3.3079
B10H13,3.206
B10H13Br,3.3357
B10H13CSN,2.9344
B10H13CSN,2.5442
B10H13Cl,3.6163000000000003
B10H13I,2.5463
B10H13I,2.8217
B10H13I,2.2617
B10H14S,2.3509
B10H14S,2.5518
B10H16CSe,3.3257000000000003
B10H18C2S,2.1031000000000004
B10H18C2S,3.0717
B10H33C10I,2.955
B10Pb3O20,0.2968000000000002
B10Pb4Cl2O19,0.4469000000000001
B10Pb4O21,0.10580000000000012
B11(Pb2O9)3,0.0
B11H10SI,3.4062
B11H11C4SI10NF,2.2129999999999996
B11H18C4S2NCl,3.5256
B11H2CCl11,3.5631
B11Rh18,0.0
B12H21C4S2I,4.1333
B12Pb6O25,1.4325
B12S,1.7964000000000002
B13C2,0.0
B13H19,2.7668999999999997
B13H27C6S3F4,5.3274
B13N2,0.0
B13P,0.0
B17F27,2.5751
B2(CN2)3,2.2986999999999997
B2(CN2)3,2.7396000000000003
B2(CN2)3,2.117
B2(CN2)3,2.4836
B20H30C2S,2.5779
B20H30C3N2,3.0457
B20H42N4O3,4.4239
B20Ir4W5,0.0
B24Mo7,0.0
B2AsCl2,3.4040999999999997
B2AsH13C3Br3N,4.675000000000001
B2AsP,1.3755999999999995
B2F3,2.4177
B2H10C2NClO3,3.8874
B2H10C2NClO3,4.0008
B2H12C3(NO)6,4.589700000000001
B2H26C8N20Cl2O,4.1207
B2H3,3.074
B2H4C,4.5776
B2H5,6.2615
B2H8N,5.6386
B2Mo,0.0
B2Mo(PbO2)6,2.4454000000000002
B2Mo2Ir,0.0
B2Mo2Os,0.0
B2Mo2Ru,0.0
B2Mo3,0.0
B2MoRu,0.0
B2NCl3,4.3775
B2O3,4.1254
B2O3,4.2258
B2O3,4.0799
B2O3,4.4325
B2O3,4.4806
B2O3,6.3017
B2O3,8.3751
B2Os,0.0
B2OsW2,0.0
B2P6H60Ir2C18O3F8,1.0734
B2PH20C5N,5.0846
B2Pb2O5,2.719
B2Pb2S5,1.6623999999999999
B2Pb4O7,2.4544999999999995
B2Pb6SO12,2.7033000000000005
B2Pb6WO12,2.56
B2Pd5,0.0
B2PdO4,0.7786
B2Pt3,0.0
B2Ru,0.0
B2RuW,0.0
B2S2O9,6.6956
B2S3,2.5061
B2S3,1.5315
B2Se2O7,3.9417999999999997
B2Se3O10,3.738
B2TeO5,3.15
B2TeO6,2.5854999999999997
B2W,0.0
B36O5,2.3416000000000006
B3H10N,5.9859
B3H12N,5.4716000000000005
B3H20(CN)3,5.413600000000001
B3H3SeO9,3.2394
B3H4,2.315
B3H4NO5,5.5239
B3H5,3.8726000000000003
B3H5,3.6391
B3H5N3,4.8954
B3H5N3,4.5813999999999995
B3H60C16(NO)12,0.0
B3H7C2S,3.6437
B3Ir2,0.0
B3Mo,0.0
B3Os2,0.0
B3Pb10Br3O13,2.4353999999999996
B3Pb3NO10,3.0129
B3Pb6BrO10,2.8245000000000005
B3Pb6ClO10,2.816
B3Pb6O10F,2.7687999999999997
B3Pd16,0.0
B3Rh7,0.0
B3Ru2,0.0
B3Ru7,0.0
B40H51F3,0.9112999999999998
B4C,3.0415
B4C,0.0
B4C,1.5149
B4H5,2.8507
B4H5,2.8803
B4MoIr,0.0
B4MoRu2,0.0
B4OsW,0.0
B4Pb6O13,0.0054000000000002935
B4PbO7,4.208499999999999
B4Rh5,0.0
B5F6,3.2984999999999998
B5H11,4.6651
B5H11N2,3.8592999999999997
B5H12C2NO10,5.6887
B5H12NO12,5.5022
B5H15C3N,4.1616
B5H2Pb2O11,0.15910000000000024
B5H4NO8,5.7298
B5H5CI,4.2014
B5H6Br,3.0316
B5H7,3.3929
B5H7S,2.0846
B5H8,5.4267
B5H9,5.964700000000001
B5H9,5.9591
B5H9,5.709300000000001
B5H9N,3.7741
B5Ir3W2,0.0
B5PH4Cl,4.1342
B5Pb2BrO9,3.4053000000000004
B5Pb2ClO9,3.4890000000000003
B5Pb2IO9,3.3111
B5SbO10,2.0512
B5TeH5C,2.1558
B6As,2.6454000000000004
B6H10C2SBr,4.5166
B6H10N,5.6566
B6O,1.8563999999999998
B6P,2.4757
B6P2H14N2O19,1.0871
B6Pb,0.9206000000000003
B6Pb3O11F2,3.0253999999999994
B7H10,2.5117
B84O11,2.5780000000000003
B8H4PbO15,4.763299999999999
B8O,2.3696
B8O,2.2645
B8O,2.4459
B8O,2.3536
B8P,0.18459999999999965
B8P2H39RhC13,2.2831
B8PH24PtC7,1.3137
B8PH24RhC7,1.6749999999999998
B8PbO15,0.0
B8Ru11,0.0
B9H11,2.9118
B9H11,3.319
B9H11C2,3.6607
B9H25C4NCl,3.6529
B9H8S,4.0429
B9Pb8O21F,3.4333000000000005
BAs,1.2036999999999995
BAs,1.1428000000000003
BAs5(Pb3O10)2,2.9414000000000007
BAsH4NO4F,4.3662
BAsO4,3.8757
BAsO4,4.2615
BAsPbO5,3.3847
BBr,1.2319
BBr3,3.8273
BCl,0.0
BCl,0.9004000000000001
BCl(OF2)2,1.6825999999999999
BCl(OF2)2,1.5295999999999998
BCl2,2.9183
BCl3,4.7135
BClF6,3.3471
BF2,4.8986
BF3,8.1347
BF3,8.2939
BH,0.0
BH(PbO2)2,3.0854
BH10C2N,5.7052
BH10C2N5O3,4.5377
BH10C3NF4,7.2814
BH11C4BrNF4,5.1175999999999995
BH11C4NClF4,6.373200000000001
BH12N4F3,4.9249
BH17C6NCl,5.0663
BH2N,5.2948
BH2NCl2,5.8178
BH2OF3,7.567699999999999
BH2S3N3F4,2.348
BH2S3N3F4,2.1892
BH3,5.3252
BH3NF3,7.7194
BH3NF4,7.5583
BH3OF4,7.657299999999999
BH4N,5.9404
BH4NF4,7.481199999999999
BH4O2F3,6.8268
BH5(NF2)2,6.5929
BH5(OF2)2,7.263999999999999
BH5CN2,5.4699
BH5NCl,5.4121
BH6C2N5F4,4.3443000000000005
BH6CN3F4,5.6634
BH6N,6.0173000000000005
BH6N,5.9894
BH6N,6.1085
BH6N,5.785299999999999
BH6N,5.5053
BH6N,6.2446
BH6N,5.9101
BH7C2N4OF4,5.0921
BH8CN,6.158
BH8N,5.6111
BH9(CO)3,5.7775
BHN4,4.359
BHO2,6.2786
BHO2,6.3043
BHO2,7.0739
BHS3O11,5.696299999999999
BI3,2.6901
BIr,0.0
BIrPd,0.0
BMo,0.0
BMo2,0.0
BMo2C,0.0
BMoW,0.0
BMoWC,0.0
BN,4.3887
BN,4.7783
BN,1.5671
BN,4.4506
BN,5.1975999999999996
BN,4.3683
BN,3.9745
BN,3.2495000000000003
BN,2.8663
BN,3.9616999999999996
BN,4.273999999999999
BN(OF2)2,3.0021999999999998
BN3Cl2,3.0347
BNF8,3.0579
BNF8,2.9979
BO2F3,0.0
BOs,0.0
BP,1.0624000000000002
BP,1.2434999999999992
BP(H3N)3,4.9115
BP(IBr)3,1.9337
BP(PbO2)4,3.0004999999999997
BP2N2Cl7,2.9211
BP2Pb2O9,0.023499999999999854
BP2Pb2O9,0.8651
BP3(PbO4)3,3.9628
BP4(SBr)3,2.6382
BP4(SI)3,2.1989
BP5(Pb3O10)2,3.7876
BPBr2NCl3,2.9078
BPBr6,2.7247000000000003
BPH4NO4F,5.8383
BPH9C2,5.6154
BPO4,6.998399999999999
BPO4,7.2565
BPPbO5,4.2593000000000005
BPS4,2.2760000000000002
BPb2O3F,3.1984
BPb3O4F,2.3654
BPb7Br3O7,1.9254000000000002
BPd2,0.0
BPd3,0.0
BPd5,0.0
BPd6,0.0
BPt,0.0
BPt2,0.0
BPt3,0.0
BRh,0.0
BRh2,0.0
BS2,2.4370000000000003
BS4(NF)4,0.42069999999999996
BS4N4F3,1.8149
BSBr,3.5168
BSBr,3.5111999999999997
BSF7,4.9968
BSbO3,3.7620000000000005
BSbO3,3.4785000000000004
BSbPbS4,2.1522
BSe2,1.7712
BTe3(OF5)3,3.7899
BW,0.0
BW2,0.0
Ba,0.0
Ba(Ag3O2)2,0.9577999999999998
Ba(AgGe)2,0.0
Ba(AgO)2,1.7273
Ba(AgS)2,0.8761000000000001
Ba(AgSn)2,0.0
Ba(AgTe)2,0.6732999999999998
Ba(AlCl4)2,5.3891
Ba(AlGa)2,0.0
Ba(AlGe)2,0.0
Ba(AlS2)2,3.6517000000000004
Ba(AlSe2)2,3.0544000000000002
Ba(AlSi)2,0.0
Ba(AlTe2)2,1.5444
Ba(AlTe2)2,1.5046999999999997
Ba(As3Pt2)2,0.19010000000000016
Ba(As3Ru)4,0.0
Ba(AsO3)2,2.7763
Ba(AsPd)2,0.0
Ba(AsRh)2,0.0
Ba(AsRu)2,0.0
Ba(AuF4)2,2.4882
Ba(AuF6)2,1.5741999999999998
Ba(AuO2)2,1.4498000000000002
Ba(B2Pt3)2,0.0
Ba(BH)12,5.8133
Ba(BH4)2,5.6574
Ba(BIr)2,0.0
Ba(BO2)2,4.522399999999999
Ba(BO2)2,4.7852
Ba(BO2)5,0.6024
Ba(BRh)2,0.0
Ba(BS2)2,2.7453000000000003
Ba(BSe3)2,1.7096
Ba(BeN)2,1.1789999999999998
Ba(BiPd)2,0.0
Ba(BiS2)2,1.2751000000000001
Ba(BiS2)2,0.9620000000000002
Ba(BrF4)2,3.2254
Ba(BrO3)2,4.3458
Ba(BrO3)2,4.1953
Ba(CO2)2,3.2678
Ba(Cd2Pt)2,0.0
Ba(CdAs)2,0.15759999999999996
Ba(CdGe)2,0.0
Ba(CdP)2,0.6835999999999998
Ba(CdSb)2,0.0
Ba(CeS2)2,0.0
Ba(ClO3)2,5.2826
Ba(ClO4)2,5.4454
Ba(Co5As3)2,0.0
Ba(CoAs)2,0.0
Ba(CoGe)2,0.0
Ba(CoN)2,0.0
Ba(CoSn4)2,0.0
Ba(Cr5S8)2,0.0
Ba(CrAs)2,0.0
Ba(CrN2)2,0.0
Ba(Cu2As)2,0.0
Ba(Cu2As)4,0.0
Ba(Cu2P)4,0.0
Ba(Cu3As)2,0.0
Ba(Cu5P2)2,0.0
Ba(CuAs)2,0.0
Ba(CuO)2,1.3862999999999999
Ba(CuO)4,0.0
Ba(CuP2)2,0.0
Ba(CuS)2,0.5011999999999999
Ba(CuS)2,0.9028
Ba(CuSb)2,0.0
Ba(CuSe)2,0.3703000000000003
Ba(CuSe)2,0.4887000000000006
Ba(CuTe)2,0.6006999999999998
Ba(DyS2)2,1.7599999999999998
Ba(DySe2)2,1.3765
Ba(DyTe2)2,0.7862
Ba(ErS2)2,1.7408999999999994
Ba(ErSe2)2,1.3665000000000003
Ba(ErTe2)2,0.7848999999999995
Ba(Fe2O3)9,0.049599999999999866
Ba(FeAs)2,0.0
Ba(FeBr4)2,0.7292000000000001
Ba(FeN)2,0.0
Ba(FeO2)2,1.3402
Ba(FeO2)2,0.0
Ba(FeP)2,0.0
Ba(FeS2)2,0.0
Ba(FeSb3)4,0.0
Ba(FeSe2)2,0.0
Ba(GaAs)2,1.3062
Ba(GaH)2,0.0
Ba(GaO2)2,3.022
Ba(GaO2)2,3.2031
Ba(GaP)2,1.4276999999999997
Ba(GaPt)2,0.0
Ba(GaS2)2,2.9073
Ba(GaSb)2,0.027800000000000047
Ba(GaSe2)2,1.8578000000000001
Ba(GaTe2)2,0.5291000000000001
Ba(GdS2)2,0.6887000000000003
Ba(GdSe2)2,1.2254999999999998
Ba(GdTe2)2,0.7582000000000004
Ba(Ge3Pt)4,0.0
Ba(GeAs)2,0.02859999999999996
Ba(GeAu)2,0.0
Ba(GeP)2,0.5134000000000003
Ba(GeRh)2,0.0
Ba(GeRu)2,0.0
Ba(H2O3)2,0.0027000000000000357
Ba(H2O3)2,0.2549
Ba(H2O3)2,2.7803
Ba(H2O3)2,0.12349999999999994
Ba(H2O3)2,0.1985
Ba(H8O5)2,3.9706
Ba(H8O5)2,3.9040999999999997
Ba(H8O5)2,4.1036
Ba(H8O5)2,3.8353
Ba(H8O5)2,3.8287
Ba(H8O5)2,3.904
Ba(H8O5)2,3.5473
Ba(H8O5)2,3.8348999999999998
Ba(H8O5)2,3.7433
Ba(HO)2,4.3643
Ba(HO)2,4.6229000000000005
Ba(HO)2,4.1201
Ba(HO)2,4.181
Ba(HO)2,4.1979
Ba(HO)2,4.1934000000000005
Ba(HO)2,4.109
Ba(HO)2,3.7544
Ba(HO)2,3.489
Ba(HO2)2,2.9433000000000002
Ba(HoS2)2,1.7501999999999995
Ba(HoTe2)2,0.7850000000000001
Ba(IO3)2,3.5435999999999996
Ba(InAu)2,0.0
Ba(InCu)2,0.0
Ba(InP)2,0.2508999999999997
Ba(InPt)2,0.0
Ba(InS2)2,2.2042
Ba(InSb2)2,0.25319999999999965
Ba(InSe2)2,1.687
Ba(InTe2)2,0.9642
Ba(InTe2)2,0.8637000000000001
Ba(IrO3)2,0.0
Ba(LaI4)2,2.0311000000000003
Ba(LaS2)2,2.0683999999999996
Ba(LaSe2)2,1.7602000000000002
Ba(LuS2)2,1.7477000000000005
Ba(LuSe2)2,1.3977
Ba(LuTe2)2,0.7892999999999994
Ba(MgAs)2,1.0689000000000002
Ba(MgBi)2,0.3967999999999998
Ba(MgGe)2,0.0
Ba(MgIn)2,0.0
Ba(MgP)2,1.1366
Ba(MgPb)2,0.0
Ba(MgSb)2,0.8466
Ba(MgSi)2,0.0
Ba(MgSn)2,0.0
Ba(MnAs)2,0.0
Ba(MnBi)2,0.0
Ba(MnGe)2,0.0
Ba(MnN2)2,0.0
Ba(MnP)2,0.0
Ba(MnSb)2,0.0
Ba(Mo3S4)2,0.0
Ba(MoN2)2,0.0
Ba(MoSe)3,0.0
Ba(NO2)2,2.3829000000000002
Ba(NO3)2,3.6327000000000003
Ba(NaSi2)2,1.0116999999999998
Ba(NbN2)2,2.1708
Ba(NdS2)2,1.9232
Ba(NdS2)2,1.6426000000000003
Ba(NdSe2)2,1.5998999999999999
Ba2MgMnO4,0.9752000000000001
Ba2MgMo4(P2O7)4,2.2343
Ba2MgMo4(P2O7)4,0.7971999999999992
Ba2MgMo4(P2O7)4,2.9006
Ba2MgMo4(P2O7)4,2.4155999999999995
Ba2MgMo4(P2O7)4,2.1636999999999995
Ba2MgMo4(Se2O11)2,0.6927000000000003
Ba2MgMo4(Se2O11)2,1.5659
Ba2MgMo4(Se2O11)2,1.6881
Ba2MgMo4(Se2O11)2,1.9622
Ba2MgMo4(Se2O11)2,0.8372000000000002
Ba2MgMo4(Se2O11)2,2.0203
Ba2MgMoO6,2.2647999999999997
Ba2MgN2,0.0
Ba2MgNb4O12,0.0
Ba2MgNb6(NO7)2,0.0
Ba2MgNb6(NO7)2,0.2667999999999995
Ba2MgO3,3.3403000000000005
Ba2MgOsO6,0.0
Ba2MgReO6,0.0
Ba2MgSi2O7,4.4620999999999995
Ba2MgSi2O7,4.4529000000000005
Ba2MgTi2CuF14,0.0690000000000004
Ba2MgTiO4,0.0
Ba2MgTl,0.0
Ba2MgTl2CuO6,0.0
Ba2MgUO6,2.0536999999999996
Ba2MgV2(Si2O7)2,2.0163999999999995
Ba2MgV2(Si2O7)2,1.5277000000000003
Ba2MgV2CuF14,0.2219
Ba2MgWO6,3.2230999999999996
Ba2Mn(AsO4)2,1.1126
Ba2Mn(BO2)6,3.9788000000000006
Ba2Mn(PO4)2,2.0342999999999996
Ba2Mn2AlF11,0.06879999999999997
Ba2Mn2As2O,0.0
Ba2Mn2Bi2O,0.0
Ba2Mn2ClF7,4.063599999999999
Ba2Mn2CuF14,0.7907000000000001
Ba2Mn2F11,1.6667
Ba2Mn2O5,0.0
Ba2Mn2Sb2O,0.0
Ba2Mn2Se2OF2,0.0
Ba2Mn2Si2O9,1.9934
Ba2Mn2ZnCuF14,0.6338999999999999
Ba2Mn3(AsO)2,0.0
Ba2Mn3(SbO)2,0.0
Ba2Mn3(SeO3)6,0.9861
Ba2Mn3Tl2O10,0.0
Ba2Mn3Tl2Zn2O10,0.0
Ba2Mn5O10,0.0
Ba2MnAl2CoF14,2.9722999999999997
Ba2MnAl2CuF14,0.8823
Ba2MnCdFe2F14,2.2854
Ba2MnCu(P2O7)2,0.0
Ba2MnGe2O7,2.4342999999999995
Ba2MnMoO6,1.2653999999999996
Ba2MnNbO6,0.0
Ba2MnNbO6,1.1627999999999998
Ba2MnNbO6,1.1475
Ba2MnNbO6,0.07640000000000002
Ba2MnNbO6,0.18579999999999997
Ba2MnNiClF7,2.5225
Ba2MnO3,1.4139000000000004
Ba2MnO3,1.5072
Ba2MnO4,0.0
Ba2MnP4(H3O8)2,4.523899999999999
Ba2MnReO6,0.0
Ba2MnRuO6,0.0
Ba2MnS3,0.0
Ba2MnSe3,1.0675
Ba2MnSi2ClO7,0.9239000000000002
Ba2MnSnO6,0.0
Ba2MnTe3,0.8251999999999997
Ba2MnTeO6,0.9485999999999999
Ba2MnTeSe2,0.0
Ba2MnV2HO9,0.9106000000000001
Ba2MnWO6,2.2267
Ba2MnZn2(AsO)2,0.0
Ba2Mo15Se19,0.0
Ba2Mo2F11,1.9493
Ba2MoN3,0.0
Ba2MoO3F4,3.225
Ba2N,0.0
Ba2NCl,1.1077
Ba2NF,1.0924
Ba2NF,0.0
Ba2NF,0.3820999999999999
Ba2Na(CuO2)3,0.0
Ba2Na(FeAs)6,0.0
Ba2Na(NiO2)3,0.3005
Ba2Na(SnAs)6,0.0
Ba2Na2B10H2O19,4.6933
Ba2Na2O3,1.9318
Ba2Na2O3,2.4777
Ba2Na2SrAl4F20,7.1081
Ba2Na2U(S2O)2,1.2452999999999999
Ba2Na7Ti16Bi7O48,2.4513
Ba2NaCe2Ti2FeSi8HO27,0.007200000000000095
Ba2NaCu3S5,0.45040000000000013
Ba2NaIO6,2.2417000000000002
Ba2NaIn,0.0
Ba2NaLaTi4O12,1.7800000000000002
Ba2NaMn3F11,3.6924
Ba2NaMnO6,0.0
Ba2NaNb5O15,2.4877000000000002
Ba2NaNb5O15,2.4651
Ba2NaO,0.0
Ba2NaOsO6,0.0
Ba2NaReO6,1.8688
Ba2NaSr2(SbO4)3,1.8582999999999998
Ba2NaSr2(SbO4)3,1.6808
Ba2NaUO6,0.0
Ba2Nb15O32,0.0
Ba2Nb2TeO10,2.9816000000000003
Ba2Nb5O9,0.0
Ba2Nb6Te2O21,2.1563
Ba2Nb8O11,0.0
Ba2NbBiO6,2.0585999999999998
Ba2NbCoO6,1.5345999999999997
Ba2NbCrO6,1.5823999999999998
Ba2NbCu2Pb2ClO8,0.49289999999999967
Ba2NbFeO6,1.5316
Ba2NbFeO6,1.6905999999999994
Ba2NbFeO6,1.0475000000000003
Ba2NbInO6,3.3486000000000002
Ba2NbN3,1.9547999999999996
Ba2NbP2O9F,2.9846999999999997
Ba2NbRhO6,0.8889
Ba2NbVO6,0.0
Ba2Nd(CuO2)3,0.0
Ba2Nd2Co4O11,0.3629000000000002
Ba2Nd2Co4O11,0.0
Ba2Nd2Fe(CoO4)3,0.0
Ba2Nd2Fe3CoO12,0.0
Ba2Nd2Fe4O11,0.0
Ba2Nd2Mg(Fe2O5)2,1.0606999999999998
Ba2Nd2Mg(Fe2O5)2,0.6644000000000001
Ba2Nd2Mg(Fe2O5)2,1.5235999999999996
Ba2Nd2Si4O13,5.046200000000001
Ba2Nd2Ti2Cu2O11,0.0
Ba2Nd7Si11N23,0.6173000000000002
Ba2NdAlO5,3.4133000000000004
Ba2NdBiO6,1.7565
Ba2NdBiO6,1.876
Ba2NdBiO6,1.6830000000000003
Ba2NdCoCu2O7,0.0
Ba2NdCu2HgO7,0.0
Ba2NdCu3O7,0.0
Ba2NdDyTi2Cu2O11,0.4175999999999993
Ba2NdGaS5,1.8105000000000002
Ba2NdGaSe5,1.6574000000000002
Ba2NdInSe5,1.0692000000000004
Ba2NdInTe5,0.6662999999999997
Ba2NdIrO6,0.0
Ba2NdMgBiO6,2.5241000000000002
Ba2NdMgMoO6,2.4982
Ba2NdMgSbO6,2.7145
Ba2NdMoO6,0.0
Ba2NdNb(CuO4)2,0.0
Ba2NdNbO6,2.8499999999999996
Ba2NdNbO6,2.9194999999999998
Ba2NdNbO6,2.9872999999999994
Ba2NdPaO6,3.4662
Ba2NdPuO6,0.0
Ba2NdReO6,0.0
Ba2NdRuO6,0.1257999999999999
Ba2NdRuO6,0.15010000000000012
Ba2NdSbO6,3.6649
Ba2NdSbO6,3.5814999999999997
Ba2NdSbO6,3.7321000000000004
Ba2NdTaO6,3.3164
Ba2NdTaO6,3.4981
Ba2NdTlCu2O7,0.0
Ba2NdUO6,0.8979999999999997
Ba2NdV3O11,3.4924999999999997
Ba2NdVO6,1.6381000000000001
Ba2NdVO6,1.6267
Ba2NdWO6,1.7938000000000005
Ba2NdWO6,0.0
Ba2Ni(PO4)2,0.8565999999999998
Ba2Ni2ClF7,3.5948
Ba2Ni2F11,0.6261999999999999
Ba2Ni3F10,4.6348
Ba2Ni3N2,0.0
Ba2Ni5Ge4,0.0
Ba2Ni7F18,4.4443
Ba2NiF6,0.7181
Ba2NiMoO6,2.3514
Ba2NiN2,0.0
Ba2NiOsO6,0.0
Ba2NiRuO6,0.0040000000000000036
Ba2NiTeO6,0.0
Ba2NiWO6,3.3409
Ba2OsO4,0.0
Ba2P2O7,5.1483
Ba2P2O7,4.5725
Ba2P3Pd,0.0
Ba2P6O17,5.254700000000001
Ba2P6O17,5.133100000000001
Ba2P7Br,1.6528
Ba2P7Cl,1.5662999999999996
Ba2P7I,1.7662999999999998
Ba2PCl,1.2602000000000002
Ba2PIO4,4.3976999999999995
Ba2PPd2,0.0
Ba2PaInO6,3.3095000000000003
Ba2Pb,0.028799999999999937
Ba2Pb(SO4)3,4.2698
Ba2Pb(SO4)3,4.2393
Ba2Pb(SO4)3,4.3599
Ba2PbO4,1.2232000000000003
Ba2Pd,0.0
Ba2Pd(OF)2,0.0
Ba2Pd2O5,0.0
Ba2PdF6,1.5301
Ba2PdO3,0.0
Ba2Pr(CuO2)3,0.0
Ba2Pr(CuO2)4,0.0
Ba2Pr2Co4O11,0.0
Ba2Pr3(CoO3)5,0.0
Ba2PrBiO6,1.7599999999999998
Ba2PrBiO6,1.7795999999999998
Ba2PrBiO6,1.9086000000000003
Ba2PrCoCu2O7,0.0
Ba2PrCu3O7,0.0
Ba2PrCu3O8,0.0
Ba2PrF7,6.2167
Ba2PrGaS5,1.8170000000000002
Ba2PrHfO6,0.0
Ba2PrIrO6,0.0
Ba2PrMg(CuO2)4,0.0
Ba2PrMgSbO6,2.7181
Ba2PrNb(CuO4)2,0.0
Ba2PrNbO6,2.9791000000000003
Ba2PrNbO6,2.8578
Ba2PrNbO6,2.8965
Ba2PrNbO6,3.0394
Ba2PrPaO6,3.4661000000000004
Ba2PrPbO6,0.0
Ba2PrPtO6,0.0
Ba2PrRuO6,0.13450000000000006
Ba2PrRuO6,0.1636000000000002
Ba2PrRuO6,0.3306
Ba2PrSbO6,3.684
Ba2PrSbO6,3.6483999999999996
Ba2PrSbO6,3.712
Ba2PrSeO6,0.0
Ba2PrSnO6,0.0
Ba2PrTaO6,3.3056
Ba2PrTaO6,3.4861000000000004
Ba2PrTiO6,0.0
Ba2PrV3O11,3.4927
Ba2PrVO6,1.6605000000000003
Ba2PrVO6,1.6409999999999996
Ba2PrWO6,0.0
Ba2PrWO6,1.8049
Ba2PrZrO6,0.0
Ba2PtAu,0.0
Ba2PuInO6,0.0
Ba2PuMnO6,0.0
Ba2PuPaO6,0.0
Ba2PuPbO6,0.4379999999999997
Ba2PuTaO6,0.0
Ba2PuTiO6,0.2333999999999996
Ba2PuZnO6,0.6585000000000001
Ba2Re6S11,1.3384999999999998
Ba2ReN3,0.0
Ba2ReNiO6,0.0
Ba2ReO5,0.0
Ba2Ru7O18,0.0
Ba2RuN2,0.39239999999999986
Ba2RuN3,0.0
Ba2RuO4,0.0
Ba2S3,1.6147999999999998
Ba2Sb,0.0
Ba2Sb2F11,0.20889999999999986
Ba2Sb2O5,0.0
Ba2Sb2O5,2.3822
Ba2Sb2O7,0.9781999999999997
Ba2Sb3,0.2850999999999999
Ba2Sb3O8,0.0
Ba2Sb4P2O17,1.8893
Ba2SbAu,0.5956999999999999
Ba2Sc2B4O11,3.3548
Ba2Sc2O5,3.2205999999999997
Ba2Sc2O5,2.7100000000000004
Ba2Sc2O5,2.8133000000000004
Ba2Sc2O5,1.5335
Ba2ScAlO5,1.9971999999999999
Ba2ScCl7,3.6349
Ba2ScCl7,3.7026
Ba2ScCuO4,2.0282000000000004
Ba2ScFeAsO3,0.0
Ba2ScIrO6,0.0
Ba2ScNbO6,2.5719
Ba2ScO3F,3.5461
Ba2ScOsO6,0.0
Ba2ScPaO6,3.3981000000000003
Ba2ScReO6,0.0
Ba2ScTaO6,3.0173000000000005
Ba2ScTi2BiO9,2.1294000000000004
Ba2ScUO6,0.8326000000000002
Ba2ScV3O11,3.2262
Ba2Si,0.0
Ba2Si3Ag,0.05109999999999948
Ba2Si3Au,0.0
Ba2Si3Ge5O18,3.2348
Ba2Si3GeO10,4.1604
Ba2Si3Ni,0.0
Ba2Si3O8,4.5119
Ba2Si3O8,4.4855
Ba2Si5N8,2.8815999999999997
Ba2SiO4,4.6319
Ba2SiS4,3.0012
Ba2SiSe4,2.2783999999999995
Ba2SiTe4,1.1029000000000004
Ba2Sm(CuO2)3,0.0
Ba2Sm(CuO2)4,0.0
Ba2Sm2Fe4O11,0.0
Ba2Sm2Ti2Cu2O11,0.0
Ba2Sm3Si3SeO12,0.0
Ba2SmBiO6,2.4961
Ba2SmBiO6,1.8538000000000001
Ba2SmCoCu2O7,0.0
Ba2SmCrO6,0.0
Ba2SmCu3O7,0.0
Ba2SmFeO6,0.0
Ba2SmGaSe5,1.7080000000000002
Ba2SmGaTe5,1.0131999999999999
Ba2SmInSe5,1.0779999999999998
Ba2SmMnO6,0.0
Ba2SmMoO6,0.9085000000000001
Ba2SmMoO6,0.0
Ba2SmNb4FeO15,0.0
Ba2SmNbO6,2.9074999999999998
Ba2SmNbO6,2.8503
Ba2SmOsO6,0.07050000000000001
Ba2SmPaO6,3.4592000000000005
Ba2SmReO6,0.0
Ba2SmSbO6,3.5598
Ba2SmSbO6,3.6053999999999995
Ba2SmSeO6,0.0
Ba2SmTaO6,3.3634000000000004
Ba2SmUO6,0.8488999999999995
Ba2SmV3O11,3.501
Ba2SmVO6,1.6287000000000003
Ba2SmVO6,1.6332
Ba2SmWO6,1.7704000000000004