formula,band_gap
CoO2,1.0263999999999998
CoO2,0.32030000000000003
CoO2,0.5904000000000001
CoO2,1.126
CoOF,0.2315999999999998
CoOF,0.0
CoOs,0.0
CoP,0.0
CoP2,0.4377999999999993
CoP2(H4O5)2,3.0364999999999998
CoP2(H8O5)2,0.5357
CoP2H10(NO4)2,3.4061
CoP2H13C2NO9,3.3787
CoP2H17N4O9,1.8875000000000002
CoP2H18(NF2)6,2.6244
CoP2H24C8S4NClO4,2.0123
CoP2H2O7,0.27259999999999973
CoP2H36C12Br2(N3O)2,2.9566
CoP2O7,0.0
CoP2O7,0.061799999999999966
CoP2O7,0.025799999999999823
CoP2O7,0.0028000000000000247
CoP2O7,0.1371
CoP2O7,0.2797
CoP2PbO7,3.1612999999999998
CoP2W,0.0
CoP2WO8,2.2723999999999998
CoP2WO8,2.0195
CoP3,0.0
CoP3H12NO7,3.0848999999999998
CoP3H15C3NO12,0.8513000000000001
CoP3H16N4O11,3.3103
CoP3H16N4O11,2.2074
CoP3H33C11I,1.828
CoP4(H5O8)2,3.3362999999999996
CoP4(H5O8)2,3.3954
CoP4F12,1.2839999999999998
CoP4H16(NO8)2,3.3299000000000003
CoP4O11,3.3649999999999998
CoP4O11,3.1506000000000007
CoP4O11,3.5927999999999995
CoP6(WO8)3,0.0
CoPH16NO10,3.0208000000000004
CoPH21N5O7,2.6856
CoPH3O4,0.0005999999999999339
CoPH3O5,3.1384
CoPH4ClO3,3.5517
CoPH6NO5,2.8619
CoPH6NO5,2.9102000000000006
CoPH6NO5,0.7073
CoPH6O6F,0.0
CoPH8C3N3O7,2.6717
CoPHO5,0.5879000000000001
CoPO4,1.1037
CoPO4,0.7689999999999999
CoPO4,0.27769999999999984
CoPO4,0.7021
CoPO4,0.9400000000000001
CoPO4,1.0241
CoPO4,1.1473
CoPO4,1.2167
CoPO4,1.2388
CoPO4,0.4474
CoPO4,0.9736
CoPO4,0.9818999999999999
CoPO4,1.2662
CoPO4,1.1365999999999998
CoPO4,0.8261
CoPO4,0.7596
CoPO4,0.9531
CoPO4,1.0727
CoPO4,1.0632
CoPO4,1.1677
CoPO4F,0.0
CoPPd,0.0
CoPS,1.1231
CoPS3,0.0
CoPSe,0.6371000000000002
CoPSe,0.8658999999999999
CoPW,0.0
CoPb2WO6,1.87
CoPbO3,0.0
CoPd,0.0
CoPd3,0.0
CoPt,0.0
CoPt3,0.0
CoPtF6,1.9373
CoPtO2,0.0
CoRe,0.0
CoRe(PbO3)2,0.0
CoRe2(H2O3)4,2.9871999999999996
CoRe2(MoS4)2,0.0613999999999999
CoRe3,0.0
CoRe3H22(N3O7)2,3.9408000000000003
CoReB,0.0
CoReO4,0.0
CoRh,0.0
CoRh3,0.0
CoRhS4,0.0
CoRu,0.0
CoRuS4,0.0
CoS,0.0
CoS2,0.0
CoSI,0.0
CoSO4,2.6388
CoSO4,2.7685999999999997
CoSO5,0.0
CoSb,0.0
CoSb(PO4)2,0.47819999999999974
CoSb(PO4)2,1.8863000000000003
CoSb(PO4)2,1.899
CoSb(PO4)2,0.08520000000000039
CoSb(PO4)2,1.6506000000000003
CoSb(PO4)2,1.5338000000000003
CoSb(PO4)2,0.026699999999999946
CoSb(PO4)2,1.6389000000000005
CoSb(PO4)2,1.6465
CoSb(PO4)2,0.0
CoSb2,0.0
CoSb2Br2O3,1.117
CoSb2S2(OF3)4,2.8345000000000002
CoSb3,0.16330000000000044
CoSb3(PO4)6,1.6159999999999999
CoSb3XeF23,0.9364999999999999
CoSbO4,0.1368999999999998
CoSbO4,0.0
CoSbRh2,0.0
CoSbS,0.5517999999999983
CoSbS,0.2411000000000012
CoSbS,0.0
CoSbS,0.36739999999999995
CoSbSe,0.0
CoSbTe,0.0
CoSe,0.0
CoSe2,0.0
CoSe2O5,2.3763
CoSeO3,1.8519999999999999
CoSeO3,0.0
CoSeO4,1.6888999999999998
CoSeO4,1.3657
CoSeS,0.0
CoSi,0.0
CoSi2,0.0
CoSi4Ni,0.0
CoSi4Ni3,0.0
CoSiH12(OF)6,0.0
CoSiH15N6(OF3)2,2.7165
CoSiMo,0.0
CoSiNi,0.0
CoSiO3,2.6041
CoSiW,0.0
CoSn,0.0
CoSn(PO4)2,1.8085999999999998
CoSn2,0.0
CoSn2H12(OF)6,2.5957
CoSn3,0.0
CoSn3(PO4)4,0.7442000000000002
CoSnF6,2.6481
CoSnH12(OF)6,0.0
CoSnO3,0.9832000000000001
CoSnO3,0.0
CoSnRh2,0.0
CoTc,0.0
CoTc3,0.0
CoTe,0.0
CoTe(PbO3)2,1.7931000000000008
CoTe(PbO3)2,1.6060999999999996
CoTe(PbO3)2,0.8319999999999999
CoTe(PbO3)2,0.0
CoTe2,0.0
CoTe2O5,1.8424000000000005
CoTe2O5,2.5023000000000004
CoTe2O5,2.3710999999999998
CoTe6O13,2.716
CoTeMoO6,1.8472999999999997
CoTeO3,0.0
CoTeO4,0.0
CoTeO4,0.7254
CoTeSe,0.0
CoW2O7,2.2233
CoWO4,0.0
Cr,0.0
Cr(AgO2)2,1.3899000000000001
Cr(B3H8)2,1.0282
Cr(BMo)2,0.0
Cr(Bi7O12)2,2.018
Cr(Bi7O12)2,0.19600000000000017
Cr(ClO)2,2.4182
Cr(CoN)3,0.0
Cr(CoO3)2,0.0
Cr(CoO3)2,0.24049999999999994
Cr(Fe2Sb5)2,0.0
Cr(FeAs3)2,0.0
Cr(FeSe2)2,0.0
Cr(FeTe2)2,0.0
Cr(GaS2)2,0.0
Cr(GeO3)2,0.6698
Cr(GeO3)2,0.7911
Cr(GeO3)2,0.698
Cr(InS2)2,0.0
Cr(MoS2)2,0.0
Cr(NO3)5,0.0
Cr(OF)2,2.7
Cr(PO3)2,2.9539999999999997
Cr(PO3)2,1.9037999999999995
Cr(PO3)2,2.3932
Cr(PO3)2,2.9653
Cr(PO3)2,3.025
Cr(PO3)3,1.0845000000000002
Cr(PO3)3,3.0545
Cr(PO3)3,1.949
Cr(PO3)3,3.0294999999999996
Cr(PO3)3,3.1832000000000003
Cr(PO3)3,3.2236000000000002
Cr(PO3)3,3.3019
Cr(PO3)3,2.8648000000000002
Cr(PO3)3,3.2554000000000003
Cr(PO3)4,0.4907
Cr(PO3)4,0.18949999999999997
Cr(PO3)4,0.14050000000000007
Cr(PO3)4,0.0
Cr(PO3)4,0.2983
Cr(PO3)4,0.0025000000000000577
Cr(PO3)4,0.2695
Cr(PO3)5,0.0
Cr(PO3)5,0.21760000000000002
Cr(PO4)2,0.3393
Cr(PS3)3,0.09780000000000011
Cr(ReO3)2,0.0
Cr(RhSe2)2,0.0
Cr(SO4)2,0.0
Cr(SbO3)2,0.053300000000000125
Cr(SbO3)2,0.0
Cr(Si2O5)2,1.8279999999999998
Cr(SiO3)2,1.6727999999999998
Cr(SiO3)2,0.22639999999999993
Cr(Te2Rh)2,0.0
Cr(WO4)2,0.0
Cr(WO4)2,1.1247
Cr(WO4)3,1.4946000000000002
Cr10Co4CuSe20,0.0
Cr10Fe5O24,0.0
Cr10Sb3Te7,0.0
Cr11Ge19,0.0
Cr11Ge8,0.0
Cr11Ni40Mo9,0.0
Cr11NiS16,0.0
Cr12As4C3N,0.0
Cr12As5C,0.0
Cr12BP3,0.0
Cr12Fe3S20,0.0
Cr12Fe7O48,0.009800000000000031
Cr12Fe7O48,0.0
Cr12Ga2(CoS8)3,0.0
Cr12P7,0.0
Cr14MoO24,0.4715999999999996
Cr19O48,0.3451
Cr19O48,0.03779999999999999
Cr19S30,0.0
Cr2(BW)3,0.0
Cr2(Bi2O5)3,2.1167000000000002
Cr2(CN2)3,0.0
Cr2(Co7B2)3,0.0
Cr2(Hg2O3)3,1.8298
Cr2(MoO4)3,2.3888
Cr2(MoO4)3,2.6785
Cr2(NiB2)3,0.0
Cr2(PO3)5,0.24909999999999988
Cr2(PO3)5,0.08469999999999978
Cr2(PO4)3,0.0
Cr2(PS4)3,0.0
Cr2(SO4)3,0.0
Cr2(SO4)3,2.2654000000000005
Cr2(Se2O5)3,0.018000000000000016
Cr2(WO4)3,2.6717
Cr2(WO4)3,3.0223
Cr20(WC2)3,0.0
Cr21(FeC3)2,0.0
Cr21(MoC3)2,0.0
Cr21(WC3)2,0.0
Cr22MoC6,0.0
Cr22Ni50Mo3,0.0
Cr22WC6,0.0
Cr23C6,0.0
Cr23Ga26Fe3,0.0
Cr24P11C,0.0
Cr2Ag2O7,1.1140999999999999
Cr2Ag2O7,1.4355
Cr2AgBiO8,1.4879999999999998
Cr2AgS4,0.0
Cr2AgTe4,0.0
Cr2As,0.0
Cr2As6O19,0.0
Cr2AsSe,0.0
Cr2B,0.0
Cr2B(PO4)3,3.0596999999999994
Cr2B2Ir,0.0
Cr2B3,0.0
Cr2B3Os,0.0
Cr2Bi28O47,1.1680000000000001
Cr2Bi3O11,0.0
Cr2C,0.0
Cr2CdH14(NO2)4,2.8216
Cr2CdH14(NO2)4,2.8217
Cr2CdO4,1.8717000000000001
Cr2CdS4,0.0
Cr2CdSe3S,0.694
Cr2CdSe4,0.0
Cr2CdSeS3,0.4039999999999999
Cr2Co3N4,0.0
Cr2CoH20N6ClO8,2.621
Cr2CoNi3(PO4)6,0.0
Cr2CoO4,2.6060000000000003
Cr2CoP3,0.0
Cr2CoS4,0.0
Cr2CoSe3S,0.0
Cr2CoSe4,0.0
Cr2CoSeS3,0.0
Cr2CoTe4,0.0
Cr2Cu(SeS)2,0.0
Cr2Cu3(OF)12,1.1062999999999998
Cr2CuAgS4,0.7458
Cr2CuO4,0.0
Cr2CuS4,0.0
Cr2CuSe3Br,0.0
Cr2CuSe4,0.0
Cr2CuTe4,0.0
Cr2F5,1.5997
Cr2Fe3(SiO4)3,2.7134
Cr2Fe3Co(PO4)6,1.3860999999999999
Cr2Fe3Ni(PO4)6,0.0
Cr2Fe3P6WO24,0.0
Cr2Fe3Sb(PO4)6,0.0
Cr2Fe3Sn(PO4)6,0.029199999999999893
Cr2Fe3Te(PO4)6,0.0
Cr2FeO4,0.0
Cr2FeO4,1.5987
Cr2FeO4,2.3213999999999997
Cr2FeS4,0.0
Cr2FeSe3S,0.0
Cr2FeSe4,0.0
Cr2FeSeS3,0.0
Cr2FeTe4,0.0
Cr2GaC,0.0
Cr2GaN,0.0
Cr2GaS4,0.0
Cr2GeC,0.0
Cr2H21I7(N2O)3,2.2596
Cr2H24(IN3)3,1.7647
Cr2H2Pb4ClO10F,2.0671999999999997
Cr2HO4,0.0
Cr2HO4,0.00019999999999997797
Cr2Hg2H2O9,1.8064
Cr2Hg2O9,0.3965000000000001
Cr2HgO4,1.2575000000000003
Cr2HgO7,1.9827
Cr2HgS4,0.0
Cr2HgS4,0.1654
Cr2HgSe3S,0.27280000000000015
Cr2HgSe4,0.0
Cr2InS4,0.0
Cr2Ir2C,0.0
Cr2MoP3,0.0
Cr2Ni2H64N13Cl11O12,3.7261
Cr2Ni3Sb(PO4)6,0.0
Cr2NiH20(NO7)2,3.0033
Cr2NiN2,0.0
Cr2NiO4,2.6197000000000004
Cr2NiO4,2.7948
Cr2NiO4,2.3219999999999996
Cr2NiO4,0.0
Cr2NiS4,0.0
Cr2NiSe4,0.0
Cr2O3,0.0
Cr2O3,2.3438
Cr2O3,1.8986999999999994
Cr2O5,0.6394000000000001
Cr2O5,0.5167000000000002
Cr2O5,0.516
Cr2O5F2,1.8054
Cr2OF2,0.0
Cr2OF2,0.8505
Cr2P,0.0
Cr2P2O7,0.657
Cr2P2O9,0.0
Cr2P3O10,0.0
Cr2P3O11,0.0
Cr2P3O13,0.0
Cr2P4H3O16,0.03950000000000009
Cr2P4O13,2.8044999999999995
Cr2P4Pb3O16,2.9696
Cr2P4Pb3O16,2.4278000000000004
Cr2P5O16,0.0
Cr2PBrO4,1.9592999999999998
Cr2PIO4,0.0
Cr2PO5,0.7838000000000003
Cr2PO5,0.6496000000000004
Cr2PO5,0.9123000000000001
Cr2ReO6,0.0801999999999996
Cr2Rh2C,0.0
Cr2S2BrCl,0.0
Cr2S3,0.0
Cr2S5,0.2027000000000001
Cr2SbAs,0.0
Cr2SbTe,0.0
Cr2Se3,0.0
Cr2SeS,0.0
Cr2SiC,0.0
Cr2SiO4,1.9961000000000002
Cr2Te(PO4)3,0.0
Cr2Te3,0.0
Cr2Te4O11,0.5305
Cr2TeO6,1.4242
Cr2TeSe,0.0
Cr2WO6,1.6095999999999995
Cr2XeF10,1.2797
Cr3(AsO4)4,0.681
Cr3(CoO6)2,0.45519999999999994
Cr3(CoO6)2,0.8752
Cr3(FeO4)2,0.0
Cr3(FeO6)2,1.6061999999999999
Cr3(FeO6)2,1.7861
Cr3(FeO6)2,1.8235999999999999
Cr3(NiO6)2,0.0
Cr3(OF)2,1.5592000000000001
Cr3(OF)2,1.4514
Cr3(P2O7)2,0.0
Cr3(P2O7)2,0.013399999999999856
Cr3(P2O7)2,1.263
Cr3(P2O7)2,1.1240000000000006
Cr3(PO4)2,1.9389
Cr3(PO4)2,1.1944000000000004
Cr3(PO4)2,2.3522
Cr3(PO4)4,0.0
Cr3(TeSe)2,0.0
Cr3Ag8(IO6)2,1.4225
Cr3AgO8,1.0406
Cr3AsC,0.0
Cr3AsN,0.0
Cr3AuO8,0.6896
Cr3B12Rh25,0.0
Cr3B4,0.0
Cr3B4Mo3,0.0
Cr3B7BrO13,2.4249
Cr3B7ClO13,2.7626000000000004
Cr3B7ClO13,2.7083
Cr3B7ClO13,2.7718
Cr3B7IO13,1.7271999999999998
Cr3B7O13F,3.1891000000000003
Cr3BO6,0.17850000000000055
Cr3C,0.0
Cr3C2,0.0
Cr3Co(PO4)4,0.45009999999999994
Cr3Co(PO4)6,0.0
Cr3Co2,0.0
Cr3Co3(SbO8)2,0.0
Cr3Co3(TeO8)2,0.0
Cr3Co5O16,0.0
Cr3CoTe2(PO4)6,0.0
Cr3Cu2NiSe8,0.0
Cr3Cu2SbS8,0.0
Cr3Fe,0.0
Cr3Fe(PO4)6,0.0
Cr3Fe2Sb3O16,0.0
Cr3Fe3(TeO8)2,0.0
Cr3Fe3GeAs2,0.0
Cr3Fe3SiAs2,0.0
Cr3FeAs4,0.0
Cr3Ga,0.0
Cr3Ga4,0.0
Cr3GaFe3As2,0.0
Cr3GaN,0.0
Cr3GaS6,0.0
Cr3Ge,0.0
Cr3GeC,0.0
Cr3GeN,0.0
Cr3HO8,0.0
Cr3In(CoS4)2,0.0
Cr3InO8,0.0
Cr3IrN,0.0
Cr3Mo,0.0
Cr3N2,0.0
Cr3N4,0.0
Cr3Ni,0.0
Cr3Ni(PO4)4,0.00990000000000002
Cr3Ni(PO4)6,0.0
Cr3Ni(SO4)6,0.0
Cr3NiB6,0.0
Cr3NiP4,0.0
Cr3NiSb4,0.0
Cr3NiSn8,0.0
Cr3NiTe2(PO4)6,0.0
Cr3O4,1.4759999999999995
Cr3O4,0.7244000000000002
Cr3O7,0.1068
Cr3O8,0.5890000000000001
Cr3O8,0.12239999999999995
Cr3O8,0.5108999999999999
Cr3O8,0.0
Cr3P,0.0
Cr3P3O13,0.0
Cr3P4O15,0.0
Cr3P6WO24,0.02259999999999998
Cr3PC,0.0
Cr3PN,0.0
Cr3Pb5ClO12,0.5851000000000002
Cr3Pb5F19,2.9766
Cr3PdN,0.0
Cr3PtN,0.0
Cr3Rh,0.0
Cr3Rh3S8,0.0
Cr3RhN,0.0
Cr3Ru,0.0
Cr3Ru3C2,0.0
Cr3S4,0.0
Cr3Sb(PO4)4,0.6692
Cr3Sb(PO4)6,0.005500000000000005
Cr3Sb3(TeO8)2,1.3007
Cr3Sb5O16,0.2157
Cr3SbAs2,0.0
Cr3SbO8,0.03520000000000012
Cr3Se2ClO8,0.5232
Cr3Se4,0.0
Cr3Si,0.0
Cr3Si2Mo3,0.0
Cr3Si3Pb10(ClO12)2,1.4457
Cr3Sn2Sb3O16,0.3979999999999997
Cr3Sn3(SbO8)2,0.19399999999999995
Cr3Sn3(SbO8)2,0.4558
Cr3SnN,0.0
Cr3SnS8,0.0
Cr3Te4,0.0
Cr3TeO8,0.0
Cr3WO8,0.4041999999999999
Cr4(Ga2Se5)3,0.0
Cr4(OF3)3,0.7197
Cr4(P2O7)3,2.8209000000000004
Cr4(PO4)3,0.0
Cr4(PO4)3,0.1602999999999999
Cr4(PO4)3,0.5987999999999998
Cr4(SeS)3,0.0
Cr46(BC3)3,0.0
Cr4AgBiO14,1.7973000000000001
Cr4As3,0.0
Cr4CdAgSe8,0.0
Cr4CdCoS8,0.0
Cr4CdFeS8,0.0
Cr4Co3(PO4)6,2.2862
Cr4CoCuS8,0.0
Cr4CoNiS8,0.0
Cr4Cu3Se8,0.0
Cr4Cu3Te8,0.0
Cr4CuNiSe8,0.0
Cr4FeCoS8,0.0
Cr4FeCu(SeS)4,0.0
Cr4FeCuS8,0.0
Cr4FeCuSe8,0.0
Cr4FeNiS8,0.0
Cr4GaCuS8,0.0
Cr4GaCuSe8,0.0
Cr4GaS8,0.0
Cr4In2(CuSe4)3,0.0
Cr4InAgS8,0.0
Cr4InAgSe8,9.999999999976694e-05
Cr4InCuS8,0.0
Cr4InCuSe8,0.0
Cr4Ni,0.0
Cr4OF11,1.0593
Cr4OF11,0.48469999999999996
Cr4OF11,0.48529999999999995
Cr4OF11,0.9814
Cr4OF11,0.712
Cr4OF11,0.9174
Cr4OF11,0.9226
Cr4OF11,0.9371
Cr4OF11,0.1927000000000001
Cr4OF11,0.4854
Cr4OF11,0.486
Cr4OF11,0.9281
Cr4OF11,0.9148000000000001
Cr4OF11,0.48550000000000004
Cr4OF11,0.9155
Cr4OF11,0.8311999999999999
Cr4OF11,0.4849
Cr4P2O9,1.7710000000000004
Cr4P7O24,0.0
Cr4P9O32,0.0
Cr4Si2Br2O7,2.2567
Cr4Si2Cl2O7,2.3202999999999996
Cr4Si4O13,1.1174000000000004
Cr4Te3S,0.0
Cr4Te3Se,0.0
Cr4Xe5F44,1.3084000000000002
Cr5(Bi3Se8)2,0.0
Cr5(PO4)4,1.6227999999999998
Cr5(Si2O7)2,0.7892999999999999
Cr5(Te3Se)2,0.0
Cr5(TeO6)3,0.3494999999999999
Cr5AgS8,0.0
Cr5As3,0.0
Cr5B2P,0.0
Cr5B3,0.0
Cr5Ge3,0.0
Cr5InS8,0.13459999999999983
Cr5InSe8,0.0
Cr5NiAs3,0.0
Cr5NiS8,0.0
Cr5NiSn12,0.0
Cr5O12,1.3909
Cr5O12,1.7946999999999997
Cr5S6,0.0
Cr5S8,0.0
Cr5Sb3O16,0.0
Cr5Se8,0.0
Cr5Si3,0.0
Cr5Si3B,0.0
Cr5Si3C,0.0
Cr5SiB2,0.0
Cr5Te6,0.0
Cr5Te8,0.0
Cr6BC3,0.0
Cr6C3N,0.0
Cr6Co2CuSe12,0.0
Cr6O11,0.0
Cr6P7O24,0.1596000000000002
Cr6Si7Ni16,0.0
Cr7(PO4)6,0.7454000000000005
Cr7C3,0.0
Cr7Cd3(InS8)2,0.0
Cr7Ni20Mo3,0.0
Cr7Se8,0.0
Cr7Te8,0.0
Cr8Bi4O29,1.6625
Cr8Cd3CuS16,0.0
Cr8Co3NiS16,0.0
Cr8CoCu3Se16,0.0
Cr8Cu3NiS16,0.0
Cr8Fe2CuNiS16,0.0
Cr8Fe3CuS16,0.0
Cr8FeCo2CuS16,0.0
Cr8Ga3CuSe16,0.0
Cr8Ni50Mo15W2,0.0
Cr8Ni50Mo17,0.0
Cr8O21,1.3738000000000001
Cr9(PO4)8,1.1319
Cr9FeB6,0.0
Cr9In7S24,0.0
CrAg(PS3)2,0.0
CrAg(PSe3)2,0.6964000000000001
CrAg(SO4)2,1.9491
CrAg3ClO4,1.3861
CrAg3F6,0.2042
CrAgO2,1.1658000000000004
CrAgO2,1.6634000000000007
CrAgO4,0.0
CrAgS2,0.9816000000000003
CrAgS2,1.0377
CrAgS2,0.9672999999999998
CrAgS2,0.9670000000000005
CrAgS2,0.7286999999999999
CrAgS2,0.0
CrAgSe2,0.42390000000000017
CrAgSe2,0.0
CrAgSn(SeS)2,0.0
CrAgSnS4,0.0
CrAgSnSe4,0.004100000000000215
CrAgTe2,0.0
CrAs,0.0
CrAs2O7,0.0
CrAsO4,2.5028
CrAsO4,1.8131999999999997
CrAsO5,0.6428999999999999
CrAsPd,0.0
CrAsRh,0.0
CrAsRu,0.0
CrAu4,0.0
CrAuO2,1.2660000000000005
CrAuO2,0.0
CrAuS2,0.5956000000000001
CrB,0.0
CrB2,0.0
CrB2(PbO2)6,1.8898000000000001
CrB2Mo,0.0
CrB2Ru,0.0
CrB2W,0.0
CrB3(HO3)3,1.778
CrB4,0.0
CrB4,0.13060000000000027
CrB4Mo,0.0
CrB6P2(H17C3)2,0.7523
CrBO3,0.0
CrBPbO4,1.9943
CrBW,0.0
CrBi12Mo4PbO34,2.5112
CrBi8O15,1.6697000000000002
CrBiO3,1.2936999999999994
CrBiO3,1.5415
CrBiO3,1.5411000000000001
CrBiO4,0.5143999999999997
CrBiO4,0.5047000000000001
CrBiO4,0.8826999999999998
CrBiO4,0.0
CrBiO5,0.0
CrBiO5,0.03369999999999984
CrBiTeO6,0.0
CrBr2,0.0
CrBr3,1.2759
CrBrO,1.6129000000000002
CrC,0.0
CrCdCu3Se4,0.0
CrCdF6,0.0
CrCdInS4,0.8689999999999998
CrCdO4,2.4417
CrCdO4,2.2913
CrCdTe2,0.0
CrCl2,0.7128999999999999
CrCl3,0.14679999999999982
CrCl3,1.5182
CrCl3,1.4598
CrCl3O,1.4763
CrClO,0.36880000000000024
CrCo,0.0
CrCo(PO4)2,0.0
CrCo2As,0.0
CrCo2Ge,0.0
CrCo2N3,0.0
CrCo2Sb,0.0
CrCo2Si,0.0
CrCo3,0.0
CrCo3(PO4)4,0.22550000000000026
CrCo3O8,0.7062999999999999
CrCo3O8,0.47640000000000005
CrCo3O8,0.4768000000000001
CrCo4SbO8,0.9511000000000003
CrCo5O12,0.4535999999999999
CrCoAs,0.0
CrCoB,0.0
CrCoGe,0.0
CrCoH18(CN2)6,1.8356
CrCoO4,0.506
CrCoO4,1.5962
CrCoP,0.0
CrCoPt2,0.0
CrCoSi,0.0
CrCoSi2,0.0
CrCu(PS3)2,0.08760000000000012
CrCu(PSe3)2,0.6399999999999997
CrCu3HgSe4,0.0
CrCu3PbSe4,0.0
CrCuH18Br5N6,0.2672
CrCuH18N6Cl5,0.5205
CrCuRhSe4,0.0
CrCuS2,0.21969999999999956
CrCuS4,0.0
CrCuSe2,0.08099999999999952
CrCuSnS4,0.0
CrCuSnSe4,0.021300000000000097
CrF2,0.006399999999999739
CrF3,3.7828
CrF3,3.0453
CrF4,1.0142
CrF4,0.0
CrF5,1.1667999999999998
CrF5,0.7746999999999997
CrF5,1.2205999999999997
CrF6,2.0863000000000005
CrFe,0.0
CrFe(BiO3)2,0.0
CrFe(PO4)2,1.8281
CrFe(PO4)2,2.1953000000000005
CrFe11Si4,0.0
CrFe2(PO4)3,1.6569
CrFe2N3,0.0
CrFe2O5,0.47870000000000035
CrFe2O5,0.0
CrFe2Sb,0.0
CrFe2Si,0.0
CrFe3,0.0
CrFe3As2,0.0
CrFe3As4,0.0
CrFe3B2,0.0
CrFe3Co2(PO4)6,0.0
CrFe3Cu2(PO4)6,0.0
CrFe3Ni2(PO4)6,0.0
CrFe3Sb2(PO4)6,2.2860999999999994
CrFe3Sb4,0.0
CrFe3Sn2(PO4)6,0.037799999999999834
CrFe4,0.0
CrFe5(PO4)6,1.4095
CrFeAs,0.0
CrFeAs2,0.0
CrFeAs4,0.0
CrFeB2,0.0
CrFeCoNi,0.0
CrFeCoO4,1.0128000000000004
CrFeCoSi,0.0
CrFeGe2,0.0
CrFeH18(NF)6,4.02
CrFeO3,0.0
CrFeO4,0.28669999999999995
CrFeO4,0.20120000000000005
CrFeP,0.0
CrFeP2,0.0
CrFeRhS4,0.0
CrFeSb4,0.0
CrFeSi2,0.0
CrFeTeO6,1.5522
CrGa,0.0
CrGa(BiO3)2,2.0429000000000004
CrGa3(CoSe4)2,0.0
CrGa3(NiS4)2,0.0
CrGa4,0.0
CrGa7P8,0.0
CrGaCo2,0.0
CrGaFe2,0.0
CrGaFeSe4,0.0
CrGaMo6(H19O20)2,3.4204
CrGaO4,0.0
CrGaRh2,0.0
CrGaRu2,0.0
CrGaSe3,0.0
CrGe,0.0
CrGeRu2,0.0
CrGeSbO6,1.7907000000000002
CrGeTe3,0.0
CrH,0.0
CrH10N2Cl5O,2.7203
CrH10S2(NO2)4,1.7608000000000001
CrH10SNO10,2.3816
CrH10SO9,0.0
CrH12(ClO2)3,1.7364
CrH12C2(N3O2)2,3.1474
CrH12C8S2(NO)2,2.0106
CrH12I(N2Cl)2,2.3773
CrH12N3(OF2)3,4.1373
CrH12Pd(NO)4,2.5521000000000003
CrH14N4Cl3O,3.0091
CrH14N4Cl3O,3.1829
CrH15N6Cl2O,2.3579
CrH15S2O15,3.3327999999999998
CrH17N4Cl2O3,3.6068
CrH17N4Cl2O3,3.4680999999999997
CrH18(O3F)3,4.2569
CrH18C5(NO)4,2.9703
CrH18I7N6,1.4211999999999998
CrH2,0.0
CrH20N2O6F5,4.1179
CrH20N2O6F5,4.1752
CrH20S2(NO7)2,2.7076
CrH3,0.0
CrH36C12S6(ClO2)3,2.6428
CrH5O4,2.6506
CrH6C3(S2N)3,1.8989000000000003
CrH6SO7,0.17320000000000002
CrH8(NO2)2,2.6809
CrH8C4(S2N3)2,1.1524999999999999
CrH8C4NO10,3.2492
CrH9(BrN)3,0.0
CrH9(CN2)3,0.4028
CrHO2,2.6702000000000004
CrHO2,0.9946000000000002
CrHO2,0.9781000000000004
CrHO2,2.6009999999999995
CrHSe3O8,3.0002999999999997
CrHSe3O8,2.1499
CrHSe3O8,2.5572999999999997
CrHg(PbO3)2,2.0918
CrHg3(PbO4)2,1.5460000000000003
CrHg3O5,1.4475
CrHg5O6,0.8593999999999999
CrHg6As4Br7,0.0
CrHgF6,0.0
CrHgH18N6Cl5,2.6626000000000003
CrHgO4,1.931
CrHgO4,1.3635
CrI2,0.0
CrI2,0.25680000000000014
CrI3,1.1590000000000003
CrInBr3,0.0
CrInCoS4,0.0
CrInNi2,0.0
CrInNiS4,0.0
CrInO3,1.1706000000000003
CrIr,0.0
CrIr3,0.0
CrIrO4,0.0
CrIrO6,0.0
CrMo,0.0
CrMoAs2,0.0
CrMoF6,0.7764
CrMoF6,0.0
CrMoO4,0.0
CrN,0.0
CrN2,0.0
CrNi,0.0
CrNi(PO4)2,0.0
CrNi2,0.0
CrNi2BO5,2.7366
CrNi2N3,0.0
CrNi3,0.0
CrNi3(PO4)4,0.0
CrNi3Sb4,0.0
CrNi5(PO4)6,0.0
CrNiAg2F7,1.6573999999999998
CrNiAs,0.0
CrNiF6,0.0
CrNiO4,0.0
CrNiP,0.0
CrNiP2O9,0.0
CrNiPO5,0.0
CrNiSb,0.0
CrNiSb2,0.0
CrO,0.4958
CrO,0.0
CrO,1.5811000000000002
CrO,0.34089999999999954
CrO2,0.0
CrO2,0.22350000000000003
CrO2,0.27429999999999977
CrO2,0.9693
CrO2,0.014699999999999935
CrO2,0.5338
CrO2,1.0567
CrO2,0.30179999999999996
CrO3,2.2885
CrO3,2.0419
CrO3,1.4434
CrO3,1.8552
CrO3,1.2356
CrO3,2.0294999999999996
CrO3,1.3593000000000002
CrOF,2.1361000000000003
CrOF,1.9206
CrOF,1.2153000000000005
CrOF,1.2153
CrOF3,2.1933
CrOF4,2.3223
CrOF4,1.9940999999999995
CrP,0.0
CrP(HO)5,2.8008
CrP2,0.0
CrP2H13(NO5)2,3.2945
CrP2H14(NO3)3,3.7499
CrP2H15N2O11,3.4958
CrP2H15O14,3.6413
CrP2H16N3O10,3.8385000000000002
CrP2H17N4O9,3.9867
CrP2O7,0.0
CrP2O7,0.7529
CrP2O7,0.2259
CrP2O7,0.6328
CrP2O7,0.30269999999999997
CrP2O7,0.16999999999999993
CrP2O7,0.5948999999999999
CrP2O7,0.4475
CrP2Pb5O13,2.1529000000000003
CrP2S7,0.0
CrP2W,0.0
CrP3(HO5)2,3.067
CrP3H16C3NO12,2.7993
CrP3H18C6(SO)6,2.5998
CrP4,0.0
CrP4O11,2.4494
CrP4O11,2.5725000000000002
CrP4O11,2.6607999999999996
CrP6(WO8)3,1.7488
CrP8W3,0.0
CrPHO5,0.9222000000000001
CrPO4,1.5960999999999999
CrPO4,2.2583
CrPO4,2.2012000000000005
CrPO4,1.9681000000000002
CrPO4,1.803
CrPO4,1.3568000000000002
CrPO4,1.2009999999999998
CrPO4,1.7833
CrPO4,1.1304000000000003
CrPO4,1.8272000000000004
CrPO4,1.8028
CrPO4F,0.04720000000000002
CrPO4F,0.0
CrPO5,0.5163
CrPO5,1.1028
CrPO5,1.6195
CrPO5,1.5145999999999997
CrPO5,1.3829000000000002
CrPO5,0.21799999999999997
CrPO5,1.0526
CrPPd,0.0
CrPS4,0.0
CrPSe3,0.0
CrPb2F7,3.6136000000000004
CrPb2O5,1.5518000000000005
CrPb5O8,1.8799000000000001
CrPbO3,0.0
CrPbO4,2.1744000000000003
CrPbO4,2.2021
CrPd3,0.0
CrPdO2,0.0
CrPt,0.0
CrPt3,0.0
CrPt4,0.0
CrPtO2,0.0
CrRe13B6,0.0
CrRe3,0.0
CrRe3B4,0.0
CrRe5B2,0.0
CrReO4,0.0
CrRh,0.0
CrRh3,0.0
CrRu,0.0
CrS,0.0
CrS2,0.0
CrSBr,0.0
CrSO4,2.4446000000000003
CrSO4,1.5224000000000006
CrSO6,0.0
CrSb,0.0
CrSb(PO4)2,2.2315000000000005
CrSb(PO4)2,1.5183999999999997
CrSb2,0.0
CrSb3(PO4)6,1.2841000000000002
CrSb3Pb4O13,1.1067
CrSbF10,2.1481
CrSbO4,0.8623000000000003
CrSbO4,1.8455000000000004
CrSbO4,1.6034000000000002
CrSbO4,1.4198
CrSbS3,0.0
CrSbSe3,0.0
CrSbTeO6,0.8939000000000004
CrSe,0.0
CrSe2,0.0
CrSi,0.0
CrSi(Ag3O4)2,0.0012000000000000899
CrSi2,0.3638999999999992
CrSi2,0.0
CrSi7N10,0.6760999999999999
CrSiH12(OF)6,2.8104
CrSiH12(OF)6,0.0
CrSiH8(O2F3)2,0.03200000000000003
CrSiMo,0.0
CrSiNi,0.0
CrSiRu2,0.0
CrSiTe3,0.0
CrSiW,0.0
CrSn(PO4)2,0.21289999999999942
CrSn2,0.0
CrSn3(PO4)6,0.2227999999999999
CrSn4Au,0.0
CrSnRh2,0.0
CrSnRu2,0.0
CrSnSbO6,0.9725999999999999
CrTe,0.0
CrTe(WO6)2,1.3715000000000002
CrTe2,0.0
CrTe3,0.0
CrTe4Au,0.0
CrW,0.0
CrWN2,0.0
CrWO4,0.0
CrWO6,0.8938
CrWO6,0.9028999999999999
CrXeF10,1.5185
CrXeF6,1.8849999999999998
Cs,0.0
Cs,0.13620000000000004
Cs(AsIr)2,0.0
Cs(AsRh)2,0.0
Cs(AsRu)2,0.0
Cs(BBr)6,2.5949
Cs(BCl)6,3.2599
Cs(BH)3,4.324199999999999
Cs(BH)6,5.3831
Cs(BI)6,1.6875999999999998
Cs(Bi2Te3)2,0.42549999999999955
Cs(Bi2Te3)2,0.40720000000000045
Cs(CO)2,2.7110000000000003
Cs(CoAs)2,0.0
Cs(CoS)2,0.0
Cs(CoSe)2,0.0
Cs(CrS2)2,0.0
Cs(FeAs)2,0.0
Cs(FeP)2,0.0
Cs(FeSb)2,0.0
Cs(Mg4Al3)4,0.0
Cs(MnP)2,0.0
Cs(MoO3)3,0.0
Cs(MoS)3,0.0
Cs(MoS)9,0.0
Cs(MoSe)3,0.0
Cs(Nb2Cl5)3,0.9670000000000001
Cs(Nb3S4)2,0.38979999999999926
Cs(Nb3Te4)2,0.34079999999999977
Cs(NbS2)2,0.0
Cs(NpSe3)2,0.0
Cs(OsO3)2,0.0
Cs(PIr)2,0.0
Cs(PRh)2,0.0
Cs(PRu)2,0.0
Cs(SO2)2,2.2336
Cs(SbS2)2,1.4413
Cs(SbSe2)2,1.1220000000000003
Cs(SeO3)2,0.016699999999999993
Cs(SeO3)3,0.27100000000000013
Cs(TeMo)3,0.0
Cs(TeO3)2,0.0
Cs(TeO3)2,0.3616999999999999
Cs(ThSe3)2,0.0
Cs(ThTe3)2,0.0
Cs(Ti3Se4)2,0.0
Cs(V3S4)2,0.0
Cs(WCl3)3,0.0
Cs(WO3)2,0.0
Cs(WO3)3,0.0
Cs(Zr3I7)2,0.0
Cs10(Mo2N5)3,0.0
Cs10Ge2O9,0.4011
Cs10P4PdSe16,1.2531000000000003
Cs10Si7O9,1.3593000000000002
Cs10Tl6SiO4,0.19229999999999992
Cs11Fe10S16O,0.013900000000000023
Cs11O3,0.0
Cs11Rb7O3,0.0
Cs11Tl6Cl29,1.6653
Cs12Nb(In2As3)3,0.8098999999999998
Cs12Sn2As6O,0.5899000000000001
Cs12Sn2Bi6O,0.19960000000000022