formula,band_gap
KCrF3,0.15739999999999998
KCrF3,0.0
KCrF3,1.9672000000000003
KCrF3,1.968
KCrF3,0.7059000000000002
KCrF4,2.9232
KCrF6,1.3980000000000001
KCrH24(SO10)2,4.8217
KCrH4(C2O5)2,3.2405
KCrIO6,2.5061
KCrN2,0.0
KCrNiF6,3.1558
KCrO2,3.056
KCrO2,2.9299000000000004
KCrO3F,2.6875999999999998
KCrP2O7,2.5944
KCrP2S7,1.1285000000000003
KCrPCO7,0.8471
KCrPO4F,2.5013
KCrS2,1.1644
KCrSnS4,0.10299999999999976
KCu(BiS2)2,0.7213999999999996
KCu(CN)2,2.6146000000000003
KCu2(SO5)2,0.0
KCu24Ag9H48Pb26(Cl31O24)2,0.031200000000000117
KCu2AsS3,1.1692000000000005
KCu2BiS3,0.6686000000000005
KCu2GeS4,0.0
KCu2H2(SO5)2,0.0
KCu2H2(SeO5)2,0.0
KCu2H20N3(Cl2O)4,0.9117
KCu2H3(SO5)2,0.5186
KCu2P2H3(O4F)2,0.3523999999999998
KCu2SbS3,0.9539
KCu2SbSe3,0.6955000000000005
KCu3(AsO5)2,0.0
KCu3Ag(MoO4)4,0.4969000000000001
KCu3GeSe4,0.9037
KCu3NiSe4,0.0
KCu3P3(O4F3)2,0.09639999999999982
KCu3S2,0.47270000000000056
KCu3S2ClO9,0.0
KCu3SiSe4,1.3154000000000003
KCu3Te2,0.42379999999999995
KCu4(AsO4)3,0.3205999999999998
KCu4(PO4)3,0.08210000000000006
KCu4AsS4,1.2885000000000004
KCu4S3,0.0
KCu4Se3,0.0
KCu7S4,0.2427999999999999
KCu7TeS5ClO24,0.0
KCuCO3F,0.0
KCuCl3,0.0
KCuCl3,0.26819999999999994
KCuCl3,0.06840000000000002
KCuF3,0.0
KCuH3,0.0
KCuIO6,0.0
KCuO,1.2173
KCuO,1.2429999999999999
KCuO2,0.6204000000000001
KCuP2Se5,0.8444000000000003
KCuPH2O5,0.016899999999999915
KCuPO4,0.17170000000000019
KCuPO4,0.0
KCuPSe3,1.0053
KCuPdSe5,0.9195000000000002
KCuS,1.8615000000000002
KCuSb3F18,0.2823000000000002
KCuSe,0.1761999999999997
KCuTe,0.6037000000000003
KCuTeO6,0.7795
KDy(CO3)2,4.2456
KDy(MoO4)2,3.4338
KDy(MoO4)2,3.2098000000000004
KDy(MoO4)2,3.5956
KDy(PO3)4,5.2562
KDy(PO3)4,5.2774
KDy(SeO4)2,3.4722
KDy2Cl7,4.5535
KDy2F7,6.769
KDy3F10,6.988300000000001
KDyBeF6,7.3825
KDyBr3,0.0
KDyH2C2SO9,3.0287
KDyH2S2O9,4.726100000000001
KDyH2S2O9,5.4769000000000005
KDyI3,0.0
KDyO2,3.9736000000000002
KDyP2H4O9,4.6561
KDyS2,2.3337000000000003
KDyS2O9,0.8396999999999999
KDySnWO6,2.5225999999999997
KDyTiO4,2.2686999999999995
KEr(CO3)2,4.4873
KEr(MoO4)2,3.1822
KEr(MoO4)2,3.5667
KEr(PO3)4,5.2949
KEr(PO3)4,5.2768
KEr(PO3)4,5.373399999999999
KEr(SO4)2,5.8689
KEr(SeO4)2,3.4656000000000002
KEr(WO4)2,3.2910999999999997
KEr2Cl7,4.7226
KEr2Cu3Se5,1.141
KEr2CuSe4,0.5638999999999998
KEr2F7,6.9713
KEr2F7,7.1825
KEr3F10,7.0649
KEr3F10,6.9978
KErBeF6,7.4221
KErF4,6.6748
KErHSe2O9,0.20970000000000005
KErO2,3.9606
KErP2O7,4.9641
KErP2S7,2.6558
KErP4(H2O9)2,0.1007
KErP4(H2O9)2,0.30899999999999994
KErS2,2.3727
KErTe2,1.3304000000000005
KEu(CO3)2,0.0
KEu(CuTe2)2,0.0
KEu(GeO3)2,0.0
KEu(MoO4)2,0.0
KEu(PO3)4,0.0
KEu(SnO3)2,0.0
KEu(WO3)2,0.0
KEu(WO3)4,0.0
KEu(WO4)2,0.0
KEu2Cd2Sb3,0.0
KEu2Cl5,1.1205000000000003
KEu2Cl7,0.0
KEu2CuS6,0.0
KEu2I5,1.2522000000000002
KEu2Si4O10F,0.0
KEu3,0.0
KEuAsS3,0.5274999999999999
KEuAsS4,0.0
KEuBiWO6,0.10189999999999966
KEuBiWO6,0.7314999999999996
KEuDyWO6,0.3304
KEuF4,0.020000000000000018
KEuGeS4,0.0
KEuH2S2O9,0.19629999999999997
KEuHf2O6,0.0
KEuHfFeO6,0.0
KEuHfSnO6,0.0
KEuHfTiO6,0.0
KEuHfZrO6,0.0
KEuMgWO6,0.0
KEuNb2O6,0.0
KEuNb4O12,0.0
KEuO2,0.0
KEuPO4,0.0
KEuPS4,0.0
KEuPSe4,0.0895999999999999
KEuPSe4,0.054600000000000204
KEuPdO3,0.0
KEuS2,0.0
KEuSbWO6,0.26669999999999927
KEuSbWO6,0.6482999999999999
KEuSiS4,0.0
KEuSnBiO6,0.0
KEuTiO4,0.0
KEuV4O12,0.046900000000000164
KEuYSbO6,0.0
KEuYWO6,0.3611000000000004
KEuZr2O6,0.0
KEuZrBiO6,0.0
KEuZrFeO6,0.0
KEuZrSnO6,0.0
KF,5.949400000000001
KF,6.274699999999999
KF2,1.4455999999999998
KF3,0.09240000000000004
KF5,0.0
KFe(MoO4)2,2.4118
KFe(MoO4)2,2.3116000000000003
KFe(SO4)2,2.4762999999999997
KFe(SO4)2,1.8851
KFe(SeO3)2,2.1843
KFe11O17,1.1288
KFe2(MoO5)2,0.0
KFe2(PO4)2,2.1725000000000003
KFe2F6,0.0
KFe2H(SeO3)4,1.8546
KFe2P2H5O11,2.4267
KFe2P3(O4F3)2,2.4313000000000002
KFe2S3,0.0
KFe2Se3,0.0
KFe3As4(HO8)2,2.508
KFe3H6(SO7)2,1.8639000000000001
KFe3P8(H11O18)2,2.8003
KFe4(PO4)3,3.3722000000000003
KFe4(SiO4)3,1.9243999999999999
KFe5N4,0.0
KFe6H12S4O29,0.0
KFe8P8H16N7(O4F)8,0.0
KFeAs2O7,2.6999
KFeAs3H7O13,2.8787
KFeBP2HO9,2.8184
KFeBP2HO9,2.5058999999999996
KFeBiWO6,0.0
KFeBr3,0.15070000000000006
KFeBr4,0.9533
KFeCl3,0.0477000000000003
KFeCl4,0.16410000000000002
KFeCo(PO4)2,2.1638
KFeCo3(PO4)3,2.3595
KFeCu(PO4)2,0.6213000000000002
KFeCuS2,0.0
KFeCuSe2,0.0
KFeF4,2.7500999999999998
KFeF4,2.2009000000000003
KFeH24(C7N4)2,0.0
KFeH2S2O9,1.882
KFeH5(SO5)2,2.0856
KFeI3,0.18920000000000003
KFeN,0.0
KFeNi(PO4)2,2.4626
KFeO2,2.8149
KFeO2,2.1388000000000003
KFeO2,0.0
KFeO3,0.5258
KFeP2O7,2.4055999999999997
KFeP4(H2O7)2,2.6574
KFePCO7,0.0011999999999999789
KFePO4,3.1632
KFePO4,3.4089
KFePbOF6,1.4272999999999998
KFeS2,0.0
KFeS2O9,0.1805
KFeSO4F,3.925
KFeSe2,0.0
KFeSeS,0.0
KFeSn3O8,1.4611999999999998
KGa,0.0
KGa(PH)2,0.3734000000000002
KGa(PO3)4,4.5523
KGa(SeO3)2,3.2192
KGa(Te3O7)2,2.9741
KGa2Cl7,4.0476
KGa2NiP3(H2O7)2,4.1711
KGa3,0.21629999999999994
KGaAs2O7,2.6826
KGaAs3H7O13,3.2843
KGaBr4,3.5771
KGaCl4,4.3705
KGaCuF6,0.0
KGaF4,5.2165
KGaFe(CN)6,4.1171999999999995
KGaGe3O8,3.0684
KGaGeO4,3.197
KGaGeS4,2.3828
KGaH4,4.9369
KGaH9C3F,3.9788
KGaI4,2.605
KGaO2,3.0499
KGaO2,2.8487
KGaP2O7,4.3848
KGaPO4F,4.108099999999999
KGaS2,2.5331
KGaSb2,0.6920999999999999
KGaSb4,0.2906000000000004
KGaTe2,1.4306999999999999
KGaTe2,1.2481
KGd(BH4)4,2.4168
KGd(CO3)2,2.4574999999999996
KGd(MoO4)2,2.8850000000000002
KGd(MoO4)2,3.1820000000000004
KGd(MoO4)2,3.1729000000000003
KGd(NbCl3)6,0.3860000000000001
KGd(PO3)4,2.8632
KGd(PO3)4,3.2157
KGd(PO3)4,3.2486
KGd(SeO4)2,3.183
KGd(WO4)2,3.2474999999999996
KGd(WO4)2,3.1609000000000003
KGd2Cl7,2.5883000000000003
KGd2Cu(MoO4)4,1.2012
KGd2CuS4,0.8971
KGd2CuSe4,0.7999
KGdCO3F2,0.4727
KGdCO3F2,2.6106000000000003
KGdF4,4.3628
KGdGeS4,0.0
KGdH2C2SO9,2.7929999999999997
KGdH2S2O9,2.7706
KGdHf2O6,1.7960999999999998
KGdHfTiO6,0.8886000000000003
KGdNb2O6,0.0
KGdNb4O12,1.5497999999999998
KGdO2,3.05
KGdO3,0.0
KGdP2H4O9,3.1449
KGdP2H4O9,3.0454
KGdPdO3,0.7150000000000001
KGdS2,1.8308
KGdSnWO6,2.0455000000000005
KGdSnWO6,2.4188
KGdTe2,0.8263000000000003
KGdTe4,0.0
KGdTiO4,2.1484000000000005
KGdV4O12,0.5637000000000001
KGe,1.0525
KGe,0.9106
KGe2(PO4)3,3.6226000000000003
KGe2BO6,3.498
KGe2N3,1.6518000000000006
KGeAuS3,1.9973999999999998
KGeBiS4,1.6686
KGeBr3,0.9083000000000001
KGeBr3,2.9025999999999996
KGeCl3,1.4859
KGeCl3,2.8924000000000003
KGeN,1.6721
KGeN,1.3713999999999995
KGeNO,2.6817
KGePCO7,3.2424
KGePO5,3.2291
KGeSbO5,2.717
KH,3.4330999999999996
KH(CO2)2,3.1506
KH(IF6)2,4.4279
KH(IO3)2,3.4639999999999995
KH(IO3)2,3.3546000000000005
KH(IO3)2,3.508
KH2(IO3)3,3.2061
KH2CN5,4.0164
KH2I3O,1.9079000000000002
KH2N,2.0676
KH2SNO3,5.2066
KH3(CO2)2,4.8037
KH3(SO4)2,5.591200000000001
KH3(SeO3)2,4.3334
KH3(SeO3)2,4.1960999999999995
KH3(SeO3)2,4.4838000000000005
KH3(SeO4)2,3.4141000000000004
KH3C2O3,5.179
KH3C2S2O,2.5354
KH3CN2O,4.2797
KH3CO6,4.2087
KH3F4,7.3743
KH3O2,4.3804
KH3SO6,4.5855
KH4F5,7.439
KH4O2F,5.1966
KH4O4F,4.2857
KH4O4F,0.45420000000000005
KH4PbI3O2,2.7564
KH5C3N2O5,3.1387
KH5O3,4.7865
KH5S2O9,5.4879
KH8N3,2.5404
KH8O4F,5.1545000000000005
KH8W(NF3)2,2.7786
KH8W(NF3)2,3.2305
KH8WN2(OF)3,3.6513999999999998
KH8WN2(OF)3,3.8835
KH9O5,4.7217
KHCN2,3.8763
KHCO2,4.3332999999999995
KHCO3,5.0054
KHCO3,5.0147
KHCO3,4.9811
KHCS2N,2.6169
KHF2,6.9658
KHO,3.6187
KHO,3.6766
KHO,3.6423
KHS,3.2247999999999997
KHS,3.2359
KHS2O7,5.3093
KHSO4,5.4306
KHSeO3,4.2413
KHSeO4,3.5239
KHf2BiO6,0.8614999999999999
KHf6CCl15,1.1511
KHfCu3Se4,1.7069999999999999
KHfCuF7,0.3462
KHfCuS3,0.7570000000000001
KHfH2OF5,6.6561
KHfInWO6,0.5172999999999996
KHfMg14,0.0
KHfMg30O31,0.6113000000000008
KHfMg30O31,0.0052000000000003155
KHfMg30O31,0.0
KHfNbBiO6,0.0
KHfNbInO6,0.0
KHfO3,0.0
KHfPCO7,5.1465
KHfPdF7,0.0
KHfSnBiO6,1.0032999999999999
KHfSnSbO6,2.8579999999999997
KHfZrBiO6,0.802
KHg,0.0
KHg(PO3)3,3.0374999999999996
KHg11,0.0
KHg2,0.0
KHg2S(ClO)3,2.6936999999999998
KHg3,0.0
KHg5Br11,2.1377
KHg5Cl11,2.6479
KHg6,0.0
KHgAs,0.0
KHgC3(NO)3,3.2554
KHgC3(SN)3,1.8239
KHgC3(SN)3,1.6838
KHgF3,0.6082000000000001
KHgH2Cl3O,2.3907
KHgH2I3O,1.8557
KHgI3,1.7116
KHgSb,0.0
KHgSbS3,1.8396
KHo(CO3)2,4.2739
KHo(MoO4)2,3.2092
KHo(MoO4)2,3.5792
KHo(PO3)4,5.3316
KHo(WO4)2,3.3409999999999997
KHo2Cl7,4.7006
KHo2Cu(MoO4)4,1.1526000000000005
KHo2Cu(MoO4)4,1.2214000000000005
KHo2Cu3Se5,1.0943
KHo2CuS4,1.036
KHo2CuSe4,0.5635999999999997
KHo2F7,6.9253
KHo2F7,6.916099999999999
KHo3F10,7.085
KHoBeF6,7.4029
KHoCoSi2O7,3.1006
KHoCoSi2O7,3.0267
KHoF4,6.754300000000001
KHoH8RuC6(N3O2)2,3.6899
KHoO2,3.9742
KHoS2,2.3505000000000003
KI,3.7452
KI,3.8513
KI,3.2403999999999997
KI,3.7323999999999997
KI(OF)2,4.16
KI(OF)2,3.7254
KI3F16,4.1785
KICl2,2.094
KICl2O,0.7741999999999999
KICl4,1.9531
KIO3,2.8548
KIO3,2.8130000000000006
KIO3,2.8533
KIO3,2.5294999999999996
KIO3,0.0
KIO3,2.5681999999999996
KIO4,2.3491999999999997
KIn(GeO3)2,2.3143
KIn(MoO4)2,3.6425
KIn(MoSe)6,0.07589999999999986
KIn(PO4)2,0.28930000000000006
KIn(PSe3)2,1.3512
KIn(TeMo)6,0.05400000000000027
KIn(TeO3)2,2.8719
KIn(WO3)2,0.0
KIn(WO3)4,0.3201999999999998
KIn(WO4)2,4.3176000000000005
KIn2F7,3.6620999999999997
KIn3,0.0
KIn4,0.0
KIn5S8,1.5349000000000004
KIn5S8,1.2568000000000001
KIn7S8,1.1777000000000002
KIn9Co2,0.0
KIn9Ni2,0.0
KInAs3H7O13,3.1941
KInBP2HO9,4.1152
KInBr3,0.8797
KInBr3,2.3376
KInBr4,2.8234
KInCl3,1.5970999999999997
KInF3,2.3697
KInH8(CO3)4,3.5919
KInH8(SO6)2,3.9298
KInI3,0.0
KInI4,2.5931
KInO2,2.0774999999999997
KInP2O7,3.8447000000000005
KInP2S7,2.049
KInS2,1.9107
KInSe2,1.5869
KInSe2,1.4816
KInSnSe4,1.3747000000000003
KInTe2,0.9868999999999999
KIrNCl5O2,0.3791
KIrO3,0.0
KLa(CuO2)2,0.0
KLa(MoO4)2,3.3346
KLa(PO3)4,4.8558
KLa(PO3)4,4.1071
KLa(PS3)2,2.6742000000000004
KLa(PSe3)2,1.9746999999999995
KLa(SO4)2,4.3089
KLa(SeO4)2,3.5152
KLa(SnO3)2,1.101
KLa(WO4)2,3.8549
KLa(WO4)2,4.1861999999999995
KLa2Ag3Te8,0.0
KLa2NbO6,3.7476
KLa5(CCl5)2,1.7157999999999998
KLa5V2O13,2.9836000000000005
KLa7(CuO4)4,0.0
KLaAlBiO6,0.0
KLaCO4,3.7241999999999997
KLaCeGeO6,2.0494000000000003
KLaCeHfO6,2.2193
KLaCeNiO6,1.3357
KLaCeSnO6,2.091
KLaCeSnO6,2.2154000000000007
KLaCoWO6,0.0
KLaCr2O8,2.6531
KLaCuTe4,0.2323000000000004
KLaCuWO6,0.0
KLaDyBiO6,1.7130999999999994
KLaDyBiO6,1.9267999999999996
KLaDyFeO6,0.2833999999999999
KLaDyNbO6,2.1462000000000003
KLaDySbO6,2.394
KLaF4,6.1827
KLaF4,6.0985000000000005
KLaF4,6.1269
KLaFeBiO6,0.3613999999999997
KLaFeSbO6,1.6969000000000003
KLaFeSnO6,0.0
KLaFeWO6,0.0
KLaGaBiO6,0.0
KLaGdSbO6,2.2343
KLaGeS4,2.0994999999999995
KLaGeSe4,1.6220000000000003
KLaH2S2O9,4.4236
KLaHf2O6,2.5014999999999996
KLaHf4O12,0.0
KLaHfCrO6,0.0
KLaHfFeO6,0.0
KLaHfNbO6,0.0
KLaHfSnO6,1.9904000000000002
KLaHfTiO6,2.3179000000000003
KLaInBiO6,0.0
KLaInSbO6,1.1483999999999996
KLaMg14,0.0
KLaMg14O16,1.9263000000000003
KLaMg30O32,3.9396999999999998
KLaMg30O32,2.6787
KLaMgWO6,2.7814999999999994
KLaMnWO6,2.4917000000000002
KLaMnWO6,1.1266000000000007
KLaMoO5,3.2557000000000005
KLaNb2O6,0.0
KLaNb2O7,1.4938999999999998
KLaNb4O12,1.6122999999999998
KLaNbCrO6,2.0549
KLaNbFeO6,1.7117999999999998
KLaNbInO6,2.5501000000000005
KLaNbNiO6,0.0
KLaNbWO6,0.43430000000000035
KLaNiSbO6,0.0
KLaNiWO6,2.8449
KLaO2,3.8596000000000004
KLaPdO3,0.43920000000000003
KLaPrSbO6,2.0094
KLaS2,2.7005
KLaS2O9,0.40009999999999996
KLaSi(CN2)4,3.6775999999999995
KLaSiS4,2.6868999999999996
KLaSiS4,2.8686000000000003
KLaSiSe4,2.2080999999999995
KLaSmSbO6,2.9710000000000005
KLaSmSbO6,2.1983
KLaTa2O7,2.2635
KLaTaAlO6,1.7024
KLaTbBiO6,1.7048
KLaTbBiO6,1.9221
KLaTbGeO6,0.0
KLaTbSbO6,2.3726000000000003
KLaTe2,1.7012999999999994
KLaTi4O12,0.0
KLaTiNbO6,0.0
KLaTiO4,2.3399000000000005
KLaTiO4,2.3467999999999996
KLaTiSnO6,2.6740000000000004
KLaV4O12,0.43310000000000004
KLaVWO6,0.5106000000000002
KLaYBiO6,1.9898999999999996
KLaYBiO6,1.7059000000000002
KLaYNbO6,2.1338
KLaYSbO6,2.4149000000000003
KLaZnWO6,2.7739999999999996
KLaZr2O6,2.2916
KLaZrCrO6,0.0
KLaZrFeO6,0.0
KLaZrNbO6,0.0
KLaZrSnO6,2.5782
KLaZrTiO6,2.2346999999999997
KLaZrVO6,0.0
KLi(BH4)2,6.1328
KLi(C2N3)2,4.5375000000000005
KLi(PO3)2,5.2914
KLi(PO3)2,5.2264
KLi(WO3)3,1.0924
KLi(WO3)3,0.0
KLi(WO3)4,0.0
KLi(WO3)6,0.0
KLi2(HO)3,4.2639
KLi2(RuO2)6,0.0
KLi2As,0.6878
KLi2BO3,3.999
KLi2FeO3,2.1349
KLi2FeO3,1.5869
KLi2Mn2O4,0.7206999999999999
KLi2MnPCO7,3.0119
KLi2Sb(PO4)2,3.4286000000000003
KLi3,0.0
KLi3Ca7Ti2(Si6O19)2,0.0121
KLi3Ca7Ti2Si12(O18F)2,3.5221
KLi3GeO4,3.9368
KLi3PbO4,1.6930999999999998
KLi3Si12(SnO15)2,4.4356
KLi3SiO4,4.875699999999999
KLi3TiO4,4.6824
KLi3Zr2(Si2O5)6,5.1498
KLi4AlO4,3.7512
KLi4CrO5,1.0179
KLi4FeO5,0.0
KLi4NbO5,3.7769999999999997
KLi6BiO6,1.4216000000000002
KLi6IrO6,0.0
KLi6TaO6,4.3852
KLi7(H2N)8,2.6055
KLiB4O7,5.0827
KLiBeF4,6.861800000000001
KLiCO3,4.5495
KLiCoO2,1.262
KLiCrO4,2.8533999999999997
KLiDy2(MoO4)4,3.2809
KLiDyF5,7.3887
KLiEr2(MoO4)4,3.2596
KLiErF5,7.4694
KLiGd2(MoO4)4,2.9099
KLiGdF5,4.5921
KLiH2WO5,4.9734
KLiH4S2(NO3)2,5.1939
KLiHo2(MoO4)4,3.2260000000000004
KLiHoF5,7.378
KLiICl,4.4304
KLiLu2(MoO4)4,3.1597000000000004
KLiLuF5,7.4932
KLiMg14,0.0
KLiMg14O15,0.11979999999999968
KLiMg14O15,0.46940000000000026
KLiMg14O15,1.4657
KLiMg14O15,1.1966999999999999
KLiMg30O31,2.4162
KLiMg30O31,2.3208
KLiMg30O31,2.6691
KLiMg30O31,2.6547
KLiMn2(SiO3)4,2.041
KLiMnO2,0.0
KLiMnO2,1.0669999999999997
KLiMnP3HO10,3.4165
KLiMnPCO7,0.4788
KLiMnS2,0.5546000000000002
KLiMoO4,4.4886
KLiMoO4,3.7393
KLiMoO4,4.5229
KLiNb4O12,0.0
KLiNd2(MoO4)4,3.2028
KLiNi2H3(SeO5)2,0.20829999999999993
KLiNi2H3(SeO5)2,0.5869000000000002
KLiNi2H3(SeO5)2,0.0
KLiNi2H3(SeO5)2,0.19390000000000018
KLiNi2H3(SeO5)2,0.13480000000000025
KLiNi2H3(SeO5)2,0.22270000000000012
KLiNiO2,2.5945
KLiNiO2,1.791
KLiO,2.3803
KLiPH2O4F,4.7556
KLiS,2.7753
KLiS,3.0571
KLiSO4,5.260300000000001
KLiSO4,5.3221
KLiSO4,5.3179
KLiSO4,5.3423
KLiSb(PO4)2,0.27170000000000005
KLiSb3O8,0.28859999999999975
KLiSb3O8,0.0
KLiSe,2.5249
KLiSi2O5,4.7068
KLiSm2(MoO4)4,3.3372999999999995
KLiSnO2,2.0401
KLiTb2(MoO4)4,3.3146000000000004
KLiTbF5,7.3874
KLiTe,2.4134
KLiTi2(PO5)2,3.012
KLiTi2(PO5)2,3.1523000000000003
KLiTm2(MoO4)4,3.2004
KLiTmF5,7.3809
KLiWO4,3.5782999999999996
KLiWO4,4.8086
KLiY2(MoO4)4,3.2822000000000005
KLiYF5,7.0274
KLiYF5,7.1638
KLiZn3O4,1.6430000000000002
KLiZnO2,2.0766
KLiZnP2O7,4.2648
KLiZnP2O7,4.2904
KLiZnS2,2.4361
KLu(CO3)2,4.5532
KLu(MoO4)2,3.9992
KLu(MoO4)2,3.0507
KLu(MoO4)2,3.5495
KLu(NbCl3)6,1.0824000000000003
KLu(WO4)2,3.2486
KLu3F10,7.123200000000001
KLu3F10,7.0737000000000005
KLuBeF6,7.475899999999999
KLuH8(CO3)4,3.4538
KLuO2,3.9403999999999995
KLuP2O7,5.5451
KLuS2,2.4307
KLuTa2O7,2.2807000000000004
KMg(PO3)3,4.9473
KMg149,0.015000000000000124
KMg14Al,0.0
KMg14AlO16,1.8639000000000001
KMg14AlO16,2.1653000000000002
KMg14Bi,0.0
KMg14BiO16,2.2048000000000005
KMg14Cd,0.0
KMg14CoO16,0.20000000000000018
KMg14CoO16,0.0
KMg14CrO16,0.2734999999999994
KMg14CrO16,0.0004999999999997229
KMg14Cu,0.0
KMg14FeO16,0.48189999999999955
KMg14FeO16,0.0
KMg14Ga,0.0
KMg14GaO16,1.4006999999999996
KMg14GaO16,1.8608000000000002
KMg14Mn,0.0
KMg14MnO16,0.25509999999999966
KMg14MnO16,0.0
KMg14Ni,0.0
KMg14Sb,0.0
KMg14SbO16,1.4488000000000003
KMg14Si,0.0
KMg14Sn,0.0
KMg14Ti,0.0
KMg14TiO16,0.0
KMg14TiO16,0.050400000000000666
KMg14WO16,1.5868000000000002
KMg14WO16,1.6604999999999999
KMg14Zn,0.0
KMg14Zr,0.0
KMg15,0.0
KMg2(PO4)2,0.0
KMg2AlFe(SiO4)3,1.0601999999999998
KMg2AlFeSi3(HO6)2,3.0954
KMg2As2H31O23,4.415
KMg2B12H19O30,5.3784
KMg2P2H31O23,4.549099999999999
KMg2V3(CuO6)2,0.0
KMg3(SiO3)4,1.1346999999999996
KMg3(SiO3)4,1.0016000000000003
KMg3(SiO3)4,1.0118999999999998
KMg30AlO32,4.1457
KMg30AlO32,4.2468
KMg30BO31,1.9818000000000007
KMg30BO31,1.6184999999999992
KMg30BO31,2.3305999999999996
KMg30BO31,3.2361000000000004
KMg30BO32,3.9894000000000003
KMg30BO32,4.0212
KMg30BiO32,2.3254
KMg30BiO32,3.2523999999999997
KMg30CO32,0.31620000000000026
KMg30CO32,0.48099999999999987
KMg30CoO32,2.0677000000000003
KMg30CoO32,2.3946
KMg30CrO32,3.5878
KMg30CrO32,3.6932000000000005
KMg30FeO32,2.7584999999999997
KMg30FeO32,2.6424000000000003
KMg30GaO32,3.8877000000000006
KMg30GaO32,4.0443
KMg30MnO32,1.8944
KMg30MnO32,1.5440999999999994
KMg30SbO32,2.6240000000000006
KMg30SbO32,1.8345000000000002
KMg30SiO32,0.33940000000000126
KMg30SiO32,0.3368000000000002
KMg30TiO32,0.6947000000000001
KMg30TiO32,0.0
KMg30WO32,2.5145
KMg30WO32,2.9611
KMg3Al(SiO4)3,0.0
KMg3AlGe3(O5F)2,2.9396999999999998
KMg3AlSi3(HO6)2,4.199
KMg3AlSi3(O5F)2,4.310700000000001
KMg3AlSi3O11F,0.006500000000000394
KMg3AlSi3O11F,0.0018000000000000238
KMg3AlSi3O11F,0.0
KMg3Cu(AsO4)3,0.7082000000000002
KMg3GaSi3(HO6)2,4.0953
KMg3V3CuO12,0.8707
KMg4(PO4)3,4.9852
KMg4Al9(SiO4)9,3.9501999999999997
KMg6Cd,0.0
KMg6P7O24,5.1735
KMg8Al17Si19O72,3.7898
KMgAg2SbS4,1.9403000000000001
KMgAg2SbS4,0.8975
KMgAg2SbS4,1.4894000000000003
KMgAs,1.1621
KMgAs(H6O5)2,4.3302
KMgAs3F18,4.6981
KMgBO3,4.6163
K2U(Si2O5)3,0.016000000000000014
K2U(WO5)2,2.0235
K2U2Cr2H2O17,0.12790000000000012
K2U2MoO10,1.3411
K2U2O5,0.0
K2U2O7,1.4709
K2U2O7,1.6483
K2U2O7,1.6176
K2U2WO10,1.7198000000000002
K2U3(IO5)4,1.8921000000000001
K2U3(TeO7)2,1.8600999999999999
K2U3MnO11,1.479
K2U7O22,1.4469000000000003
K2UAs2O9,2.4232
K2UBr5,0.11680000000000001
K2UC2S2NO8,1.3998
K2UCl5,0.1198999999999999
K2UCr(IO6)2,2.1162
K2UCu3S5,0.0
K2UF6,0.0
K2UF6,0.28279999999999994
K2UH4C4SNO10,1.6629
K2UH6C2SO13,1.4061
K2UH6C4SeO15,2.083
K2UI5,0.19019999999999992
K2UMo(IO6)2,2.1943
K2UMo2O11,0.688
K2UO4,1.9773
K2USO7F2,0.4244
K2UTe3,0.0
K2V(PO4)2,2.4724
K2V2CoO7,2.582
K2V2O5,1.1167999999999998
K2V2P4O15,2.8177000000000003
K2V3(PO5)4,0.0213
K2V3O8,1.7249
K2V3P2O13F2,0.4473
K2V3P4H4O19,1.7741000000000002
K2V3P4O17,2.7127
K2V3P4O17,0.09479999999999977
K2V6CdCu9O26,0.012099999999999778
K2V8O21,1.2496
K2VAgF6,0.0
K2VAgS4,1.2817000000000003
K2VAgS4,1.3049999999999997
K2VAgSe4,0.9843
K2VAgSe4,0.9994
K2VCl6,0.0
K2VCo6Cu2As5O24,0.4375
K2VCuS4,1.2343
K2VCuS4,1.2227999999999999
K2VCuSe4,1.1253
K2VCuSe4,1.0014
K2VH2OF5,0.2351000000000001
K2VH4C4O9,2.6698
K2VHgF6,0.0039000000000000146
K2VO2F3,2.7196
K2VOF4,2.8268
K2VOF4,2.7902
K2VPCO7,0.0
K2VPCO7,0.0532999999999999
K2VPCO7,1.6536
K2VPO6,3.3835
K2W2O7,2.3693
K2W3O10,2.4534
K2W4O13,1.7604
K2WCl6,0.0
K2WO4,4.3858
K2WO4,4.6319
K2WO8,2.927
K2WS4,1.9435000000000002
K2WSe4,1.2241
K2Y2(PO4)3,0.031099999999999996
K2Y4Cu4Se9,0.7081000000000004
K2Y4Sn2S11,1.5806
K2YAgBr6,3.2941
K2YAgCl6,3.6689000000000003
K2YAgF6,2.6382
K2YAgI6,2.5088999999999997
K2YAuBr6,1.8861999999999999
K2YAuCl6,2.2731000000000003
K2YAuI6,1.1783
K2YCl5,4.783200000000001
K2YCuBr6,2.3226999999999998
K2YCuCl6,2.6002
K2YCuF6,0.5981999999999998
K2YCuI6,1.8261
K2YF5,6.8100000000000005
K2YHf(PO4)3,5.0774
K2YHf(PO4)3,4.7808
K2YHgBr6,0.0
K2YHgCl6,0.0
K2YHgI6,0.0
K2YInCl6,3.1685000000000003
K2YInF6,3.3664
K2YNb5O15,1.6128000000000002
K2YPCO7,4.2179
K2YTi(PO4)3,2.5905
K2YTi(PO4)3,2.5582
K2YTlBr6,3.4148
K2YTlF6,4.3847
K2YZr(PO4)3,4.564
K2Zn(CN)4,5.8898
K2Zn(CN)4,6.050800000000001
K2Zn(GeO3)2,2.8724999999999996
K2Zn(H2N)4,2.0850999999999997
K2Zn(H2N)4,1.98
K2Zn(PO3)4,4.9228
K2Zn(SO4)2,4.6431
K2Zn(Si2O5)2,4.2665
K2Zn(SiO3)2,3.9235
K2Zn(SnSe3)2,1.5684000000000002
K2Zn2(MoO4)3,3.3632999999999997
K2Zn2(SO4)3,4.3495
K2Zn2O3,1.4031
K2Zn2Si8O19,4.2227
K2Zn3(P2O7)2,4.2078999999999995
K2Zn3(SeO3)4,4.1259999999999994
K2Zn3GeAs4,0.0
K2Zn3O4,1.4102000000000001
K2Zn3P4(HO3)4,4.6749
K2Zn3S4,2.5684
K2Zn3S4,2.4299
K2Zn3Se4,1.985
K2Zn3SiAs4,0.21709999999999985
K2Zn5As4,0.16049999999999986
K2Zn6O7,0.7588000000000001
K2Zn6O7,1.0654
K2ZnBr4,3.6576000000000004
K2ZnBr4,3.8018
K2ZnCl4,4.407500000000001
K2ZnCl4,4.5321
K2ZnCl4,4.671200000000001
K2ZnCl4,4.546799999999999
K2ZnCr2(H2O5)2,2.6959999999999997
K2ZnCr4(HO4)4,2.1978
K2ZnCu3P3O12F,0.0
K2ZnF4,4.3016000000000005
K2ZnGeO4,2.8518
K2ZnH12(SO7)2,4.8902
K2ZnH12(SeO7)2,3.6817
K2ZnH4,4.141
K2ZnH4(I2O7)2,3.1091999999999995
K2ZnI4,3.0987
K2ZnN12,3.7076000000000002
K2ZnO2,1.9785000000000001
K2ZnP2O7,4.129
K2ZnP4(HO2)8,5.0611
K2ZnS2,2.827
K2ZnSe2,2.3190999999999997
K2ZnSi3O8,3.2679
K2ZnSiO4,3.4888999999999997
K2ZnTe2,2.0537
K2Zr(BO3)2,3.4092
K2Zr(H2N)6,2.8091999999999997
K2Zr(PO4)2,4.4906
K2Zr(SiO3)3,4.813
K2Zr2NiH12(OF2)6,5.1419
K2Zr2O5,3.8226
K2Zr2ZnH12(OF2)6,6.710699999999999
K2Zr3OF12,5.4252
K2Zr6BeCl15,0.0
K2Zr7Cl18,0.0
K2ZrCdH16(CO3)8,2.9671000000000003
K2ZrF6,5.6959
K2ZrF6,5.3289
K2ZrFe(PO4)3,2.6176
K2ZrFe(PO4)3,2.2784