formula,band_gap
CeH8(SO6)2,1.137
CeHSO5,0.0
CeHSe,0.0
CeHf2F11,0.10230000000000006
CeHfF7,0.35650000000000004
CeHfMg14,0.0
CeHfMg30O32,0.0
CeHfMg6,0.0
CeHfO4,1.5735999999999999
CeHfO4,1.6628999999999996
CeHfO4,1.7957
CeHfO4,1.5109999999999997
CeHfO4,1.5679999999999996
CeHg,0.0
CeHg2,0.0
CeHg3,0.0
CeHgAu2,0.0
CeHgPd,0.0
CeHo3,0.0
CeHo4S7,0.0
CeHoIn2,0.0
CeHoMg2,0.0
CeHoZn2,0.0
CeI3,0.0
CeI3,0.04620000000000024
CeI4O13,0.0
CeIn2Ir,0.0
CeIn2Ni9,0.0
CeIn2Pd,0.0
CeIn2Pd3,0.0
CeIn2Rh,0.0
CeIn3,0.0
CeIn3(CuSe2)4,0.011199999999999655
CeIn3Pt,0.0031999999999996476
CeIn4Ni,0.0
CeIn4Pd,0.0
CeIn5Co,0.0
CeIn5Ir,0.0
CeIn5Rh,0.0
CeIn7Cu5,0.0
CeIn7Pt2,0.0
CeInAg2,0.0
CeInAu,0.0
CeInAu2,0.0
CeInCu,0.0
CeInCu2,0.0
CeInCu5,0.0
CeInCuAg,0.0
CeInIr,0.0
CeInNi,0.0
CeInNi4,0.0
CeInPd,0.0
CeInPd2,0.0
CeInPt,0.0
CeInPt4,0.0
CeInRh,0.0
CeIr2,0.0
CeIr3,0.0
CeIr5,0.0
CeIrOs,0.0
CeIrPt,0.0
CeLu3,0.0
CeLuAl4,0.0
CeLuMg2,0.0
CeLuO3,0.11220000000000052
CeLuS3,0.0
CeMg,0.0
CeMg,0.025900000000000034
CeMg,0.08030000000000026
CeMg(BO2)5,0.28999999999999915
CeMg(NiH)4,0.0
CeMg12,0.0
CeMg14Al,0.0
CeMg14Bi,0.0
CeMg14Cd,0.0
CeMg14Co,0.0
CeMg14Cr,0.0
CeMg14Cu,0.0
CeMg14Fe,0.0
CeMg14Ga,0.0
CeMg14Mn,0.0
CeMg14Mo,0.0
CeMg14Nb,0.0
CeMg14Ni,0.0
CeMg14Sb,0.0
CeMg14Si,0.0
CeMg14Sn,0.0
CeMg14Ti,0.0
CeMg14V,0.0
CeMg14W,0.0
CeMg14Zn,0.0
CeMg14Zr,0.0
CeMg15,0.0
CeMg2,0.0
CeMg2Ag,0.0
CeMg2Cu9,0.0
CeMg2H7,0.0
CeMg2Ni,0.0
CeMg2Ni9,0.0
CeMg3,0.0
CeMg30BO32,0.003200000000001424
CeMg30BO32,0.0
CeMg5,0.0
CeMg5Ru2,0.0
CeMg6Al,0.0
CeMg6Bi,0.0
CeMg6Cd,0.0
CeMg6Cu,0.0
CeMg6Ga,0.0
CeMg6Nb,0.0
CeMg6Ni,0.0
CeMg6Sb,0.0
CeMg6Sn,0.0
CeMg6Ti,0.0
CeMg6Zn,0.0
CeMg6Zr,0.0
CeMg7,0.0
CeMgAg,0.0
CeMgAg2,0.0
CeMgAu,0.0
CeMgAu2,0.0
CeMgCd2,0.0
CeMgCu,0.0
CeMgCu2,0.0
CeMgGa,0.0
CeMgHg2,0.0
CeMgIn3Rh,0.0
CeMgNi4,0.0
CeMgPd,0.0
CeMgPt,0.0
CeMgRh,0.0
CeMgS3,1.0618000000000003
CeMgSe3,0.875
CeMgSi2,0.0
CeMgSn,0.0
CeMgTi2O6,0.0
CeMgTl,0.0
CeMgZn2,0.0
CeMgZr7O16,0.0
CeMn10Cu,0.0
CeMn2(GeO3)4,0.4958
CeMn2Cu9,0.0
CeMn4(CuO4)3,0.0
CeMn5Co7,0.0
CeMnAl,0.0
CeMnAsO,0.0
CeMnB4,0.0
CeMnCrSi2,0.0
CeMnGe,0.0
CeMnIn,0.0
CeMnNi4,0.0
CeMnSbO,0.0
CeMnSi,0.0
CeMnSi2,0.0
CeMnSi2Pd,0.0
CeMoBrO4,0.28600000000000003
CeMoClO4,0.0
CeMoO4F,0.10150000000000059
CeN,0.0
CeN2,0.4652000000000003
CeNb3O9,0.0
CeNbO4,0.0
CeNd3,0.0
CeNd3(Fe14B)2,0.0
CeNd3C8,0.0
CeNd3Si8,0.0
CeNd4Zr3O14,2.2307
CeNdAl2O6,0.0
CeNdAl4,0.0
CeNdC4,0.0
CeNdHg2,0.0
CeNdI4,0.0
CeNdN2,0.0
CeNdS2,0.0
CeNdSi2,0.0
CeNdZn2,0.0
CeNi,0.0
CeNi2,0.0
CeNi2B2C,0.0
CeNi2B3,0.0
CeNi3,0.0
CeNi4B,0.0
CeNi5,0.0
CeNi5Sn,0.0
CeNi9Ge4,0.0
CeNiAs,0.0
CeNiB4,0.0
CeNiC2,0.0
CeNiGe,0.05679999999999996
CeNiGe,0.0
CeNiGe2,0.0
CeNiGe3,0.0
CeNiO3,0.5667
CeNiP,0.0
CeNiPt,0.0
CeNiSb,0.0
CeNiSb2,0.0
CeNiSb3,0.0
CeNiSn,0.08119999999999905
CeNiSn,0.0
CeNiSn2,0.0
CeNiSnH,0.0
CeNiSnH2,0.0
CeO,0.0
CeO2,1.9045999999999998
CeO2,1.8647
CeOF,0.0
CeOs2,0.0
CeOsRu,0.0
CeP,0.0
CeP2,0.0
CeP2H2CO6,1.3065
CeP2O7,1.5859
CeP3H8O7,3.8196000000000003
CeP4H50C12Cl3O11,0.20789999999999975
CeP5,0.0
CeP5O14,0.17300000000000004
CeP5O14,0.6770999999999998
CeP5O14,0.0
CePIr,0.0
CePO4,0.0
CePO4,0.07910000000000039
CePO4,0.10390000000000033
CePO4,0.10409999999999986
CePOs2C,0.0
CePPd,0.0
CePRu2C,0.0
CePRuO,0.0
CePS,0.0
CePS4,0.22389999999999954
CePa3,0.0
CePaO4,0.0
CePb3,0.0
CePbAu,0.0
CePbAu2,0.0
CePd,0.0
CePd2Pt,0.0
CePd3,0.0
CePd5,0.0
CePd7,0.0
CePdPt4,0.0
CePdRh2,0.0
CePm3,0.0
CePmMg2,0.0
CePmTl2,0.0
CePmZn2,0.0
CePr2O6,0.0
CePr3,0.0
CePr3Fe34,0.0
CePr3O8,0.0
CePr4O10,0.0
CePrAl4,0.0
CePrFe4,0.0
CePrHg2,0.0
CePrMg2,0.0
CePrO2,0.0
CePrO4,0.0
CePrV2O6,0.0
CePt,0.0
CePt2,0.008900000000000574
CePt2Au3,0.0
CePt3,0.0
CePt4Rh,0.0
CePt5,0.0
CePtRh,0.0
CePuCo4,0.0
CePuFe4,0.0
CeRe2SiC,0.0
CeReB4,0.0
CeReO4,0.0
CeRh,0.0
CeRh2,0.0
CeRh2O5,0.7865000000000002
CeRh3,0.0
CeRh3C,0.0
CeRhC2,0.0
CeRhO3,0.0
CeRhPb,0.0
CeRu2,0.0
CeRu3C,0.0
CeRuRh,0.0
CeS,0.0
CeS2,0.0
CeSBr,0.0
CeSCl,0.13650000000000073
CeSF,0.0
CeSI,0.0
CeSb,0.0
CeSb(SBr)2,0.0
CeSb2,0.0
CeSb2Au,0.0
CeSb2Pd,0.0
CeSb3,0.0
CeSbAu,0.0
CeSbIr,0.0
CeSbMo2O9,0.11000000000000032
CeSbPd,0.0
CeSbPt5,0.0
CeSbRh,0.0
CeSbSe,0.0
CeSbTe,0.0
CeSc3(BO3)4,0.2621000000000002
CeScAl4,0.0
CeScGe,0.0
CeScO3,0.0
CeScPd6,0.0
CeScS3,0.0
CeScSb,0.0
CeScSi,0.0
CeSe,0.0
CeSe2,0.0
CeSe2,0.0246000000000004
CeSe2,0.29170000000000007
CeSe2,0.7831999999999999
CeSe2,0.15949999999999998
CeSe2,0.16959999999999997
CeSe2,1.1492
CeSe2,1.1239999999999999
CeSe2,1.0032999999999999
CeSe2,0.5711999999999999
CeSe2,0.22880000000000056
CeSe2,0.4604999999999997
CeSe2,0.6132
CeSe2,0.5417000000000001
CeSe2,0.5051999999999999
CeSe2,0.3621000000000003
CeSe2,0.486
CeSe2,0.6930000000000001
CeSe2,0.06799999999999962
CeSe2,0.9877000000000002
CeSe2,0.6561000000000001
CeSe2,0.5556000000000001
CeSe2,0.1955
CeSe2,0.6221999999999999
CeSe2,0.44120000000000004
CeSe2,0.7992000000000001
CeSe2,1.0305000000000002
CeSe2,0.25439999999999996
CeSe2,0.7140000000000004
CeSe2,0.7385999999999999
CeSe2,0.5053000000000001
CeSe2,0.46060000000000034
CeSe2,0.08420000000000005
CeSe2,0.8828999999999998
CeSe2,0.5363000000000002
CeSe2,0.5249999999999995
CeSe2,1.1233
CeSe2,0.6267999999999998
CeSe2,0.0674999999999999
CeSe2,0.7241
CeSe2,0.8058000000000005
CeSi,0.0
CeSi2,0.0
CeSi2Ag,0.0
CeSi2Ir,0.0
CeSi2Ir3,0.0
CeSi2Mo2C,0.0
CeSi2Ni,0.0
CeSi2Ni9,0.0
CeSi2OsRu,0.0
CeSi2Pt,0.0
CeSi2Rh,0.0
CeSi2Rh3,0.0
CeSi2Ru,0.0
CeSi2Ru3,0.0
CeSi2RuRh,0.0
CeSi3Ir,0.0
CeSi3N5,0.11899999999999977
CeSi3Os,0.0
CeSi3Pt,0.0
CeSi3Rh,0.0
CeSi3Ru,0.0
CeSi4Ni9,0.0
CeSi5,0.0
CeSiAg,0.0
CeSiAs3,0.0
CeSiBIr3,0.0
CeSiBO5,0.15749999999999975
CeSiBRh3,0.0
CeSiGe,0.0
CeSiGePd2,0.0
CeSiGeRh2,0.0
CeSiHRu,0.0
CeSiI,0.0
CeSiIr,0.0
CeSiIr2,0.0
CeSiNi,0.0
CeSiNi4,0.0
CeSiO4,1.4477999999999995
CeSiOs,0.0
CeSiOs2C,0.0
CeSiP3,0.0
CeSiPd,0.0
CeSiPd2,0.0
CeSiPt,0.0
CeSiPt3,0.0
CeSiRh,0.0
CeSiRh2,0.0
CeSiRu,0.0
CeSiRu2C,0.0
CeSm,0.0
CeSm3,0.0
CeSm3S4,0.0
CeSmB12,0.0
CeSmFe4,0.0
CeSmI4,0.0
CeSmMg2,0.0
CeSmO2,0.0
CeSmTl2,0.0
CeSmZn2,0.0
CeSn2Rh,0.0
CeSn3,0.0
CeSn3Pd2,0.0
CeSn3Ru,0.005300000000000082
CeSnAu,0.0
CeSnAu2,0.0
CeSnIr,0.0
CeSnO4,1.6880999999999995
CeSnPd,0.0
CeSnPd4,0.0
CeSnPt,0.0
CeSnRh,0.0
CeSnRu,0.0
CeTa3O9,0.0
CeTa7O19,0.0768999999999993
CeTa7O19,0.05349999999999966
CeTaO4,0.0
CeTaTiO6,0.0
CeTe,0.0
CeTeCl,0.0
CeTeCl,0.013999999999999346
CeTh,0.0
CeTh2O6,2.0368000000000004
CeTh2O6,1.8350999999999997
CeTh2S3,0.0
CeTh3,0.0
CeTh3Al2,0.0
CeTh3O8,2.1216999999999997
CeTh3O8,1.7800000000000002
CeTh4O10,1.4813
CeTh9O20,1.9639999999999995
CeThB12,0.0
CeThB8,0.0
CeThC2,0.0
CeThCN,0.0
CeThN2,0.0
CeThO4,1.6536000000000008
CeThS2,0.0
CeThSi4,0.0
CeThUS5,0.0
CeTi2O6,1.8583999999999996
CeTi2O6,1.4954
CeTiFe11,0.0
CeTiGe,0.0
CeTiGe3,0.0
CeTiNbO6,0.0
CeTiO3,0.0
CeTl,0.0
CeTl(MoO4)2,0.0
CeTl(PO3)4,0.34689999999999976
CeTl(PS3)2,0.2887000000000004
CeTl(PSe3)2,0.0
CeTl(WO4)2,0.0
CeTl2(PO3)5,3.5578999999999996
CeTl2InSe4,0.0
CeTl2P2S7,0.23289999999999988
CeTl3,0.0
CeTlAg2,0.0
CeTlAu2,0.0
CeTlCd,0.0
CeTlF5,1.511
CeTlP2S7,0.27829999999999977
CeTlPd,0.0
CeTlSe2,0.0
CeTlZn,0.0
CeTm3,0.0
CeTm4S7,0.0
CeTmIn2,0.0
CeTmMg2,0.0
CeTmO3,0.09479999999999933
CeTmS3,0.0
CeU(Pt4Au)2,0.0
CeU2O6,0.0
CeU2S5,0.0
CeU3Al8,0.0
CeU4C5,0.0
CeU4N5,0.0
CeU4O10,0.0
CeU5O12,0.0
CeUB8,0.0
CeUC4,0.0
CeUCN,0.0
CeUFe4,0.0
CeUN2,0.0
CeUO4,0.0
CeUSi4,0.0
CeUTe6,0.0
CeUZn17,0.0
CeV2IO9,0.0
CeVO3,0.0
CeVO4,0.26720000000000077
CeVO4,0.734
CeVO4,0.20149999999999935
CeVO4,0.0
CeVO4,0.3341000000000003
CeY,0.0
CeY(AlPd)2,0.0
CeY(GaPd2)2,0.0
CeY(GePt)4,0.0
CeY(MgNi4)2,0.0
CeY2(AlPd)3,0.0
CeY3,0.0
CeY4Mg5,0.0
CeY4Rh5,0.0
CeY4S7,0.0
CeY4Zn5,0.0
CeYAl4,0.0
CeYC4,0.0
CeYCo17,0.0
CeYCo4,0.0
CeYCu4,0.0
CeYFe17,0.0
CeYFe4,0.0
CeYIn2,0.0
CeYIn6,0.0
CeYMg14,0.0
CeYMg2,0.0
CeYMg4,0.0
CeYMg6,0.0
CeYNi4,0.0
CeYPd6,0.0
CeYRh4,0.0
CeYTl2,0.0
CeYZn2,0.0
CeZn,0.0
CeZn(BO2)5,0.4874999999999998
CeZn11,0.0
CeZn2,0.0
CeZn2Ag,0.0
CeZn2Co,0.0
CeZn2Ni3,0.0
CeZn3,0.0
CeZn3Cu2,0.0
CeZn3Pd2,0.0
CeZn4Ni,0.0
CeZn5,0.0
CeZnAgAs2,0.0
CeZnAgP2,0.0
CeZnAu,0.0
CeZnAu2,0.0
CeZnCo2,0.0
CeZnCuP2,0.0
CeZnGa,0.0
CeZnGa3,0.0
CeZnGe,0.0
CeZnIn,0.0
CeZnNi,0.0
CeZnNi2,0.0
CeZnNi4,0.0
CeZnPO,0.0
CeZnPd,0.0
CeZnPt,0.0
CeZnRh,0.0
CeZnSbO,0.0
CeZnSi,0.0
CeZnSn,0.0
CeZr11O24,1.9568000000000003
CeZr2F11,0.31530000000000014
CeZr2O6,1.9108
CeZr3Mn8,0.0
CeZr3O8,1.5300000000000002
CeZr3O8,2.1872000000000003
CeZr3O8,2.1318
CeZr4O10,2.0695000000000006
CeZr6(PO4)9,0.3357000000000001
CeZr6O14,2.152
CeZr7O16,1.7935000000000003
CeZr7O16,1.9388999999999998
CeZr7O16,2.264
CeZr9O20,2.2773000000000003
CeZrF7,0.1854
CeZrO4,1.7012
CeZrO4,1.7356999999999996
CeZrO4,1.9108999999999998
CeZrO4,1.7423000000000002
Cl(OF)2,0.5462000000000002
Cl2,2.2818
Cl2,2.563
Cl2,2.6476000000000006
ClF,2.0897
ClF3,2.6321000000000003
ClF3,2.5175
ClF5,3.0867999999999998
ClO2,0.9646
ClOF3,3.6498999999999997
Co,0.0
Co(AsO2)2,1.4247
Co(AsO3)2,2.0656999999999996
Co(BMo)2,0.0
Co(BMo)3,0.0
Co(BO2)2,2.0693999999999995
Co(BRh2)3,0.0
Co(BW)2,0.0
Co(BW)3,0.0
Co(Bi3O5)4,1.1879
Co(Bi5O8)5,0.40250000000000075
Co(Bi5O8)5,0.8841999999999999
Co(BiO3)2,0.0
Co(CO3)2,0.5841999999999998
Co(ClO4)2,2.8209999999999997
Co(CuO2)4,0.0
Co(H3Br)2,0.03380000000000005
Co(H3Cl)2,0.35440000000000005
Co(HO)2,2.2674
Co(HO)2,2.3295000000000003
Co(HO)2,2.5221999999999998
Co(HO)2,2.3933
Co(HO)2,2.3851999999999998
Co(HO)2,2.2151
Co(HO)2,2.4449
Co(HO)2,2.3773
Co(IO3)2,2.0717000000000003
Co(IO3)2,2.3607000000000005
Co(IO3)2,2.3537
Co(IO3)2,2.3532999999999995
Co(IO3)2,2.4432000000000005
Co(Mo3Se4)4,0.0
Co(MoS2)2,0.0
Co(NF3)4,0.7749999999999999
Co(NO3)2,1.8306
Co(NO3)4,0.043099999999999916
Co(NiO2)2,0.0
Co(NiO2)4,0.2702
Co(NiS2)2,0.0
Co(NiSe2)2,0.0
Co(PO3)2,2.6019000000000005
Co(PO3)3,0.14429999999999998
Co(PO3)3,0.9751000000000001
Co(PO3)3,1.2056
Co(PO3)3,1.5263
Co(PO3)3,1.1421
Co(PO3)4,0.0
Co(PO3)4,0.26709999999999995
Co(PO3)4,0.37050000000000005
Co(PO3)4,0.040899999999999936
Co(PO3)4,0.47190000000000004
Co(PdSe)2,0.0
Co(PtO2)3,0.1366000000000005
Co(ReO3)2,0.0
Co(ReO4)2,0.0
Co(RhO2)2,0.0
Co(RhO3)2,0.0
Cd(AsO3)2,1.9348999999999998
Cd(AuF4)2,1.7789000000000001
Cd(AuF6)2,1.8309000000000002
Cd(BH4)2,3.9565
Cd(BO2)2,3.3430999999999997
Cd(BO2)2,3.3861
Cd(BO2)2,2.7302
Cd(BO2)2,2.901
Cd(BiO2)2,2.6803999999999997
Cd(BrO2)2,1.3165999999999998
Cd(C2N3)2,4.5441
Cd(C2N3)2,4.6143
Cd(CO2)2,3.3113
Cd(CoN)2,0.0
Cd(CoO2)2,1.4243
Cd(CoO2)2,1.3245999999999998
Cd(CoO2)2,0.3641000000000001
Cd(CoO2)2,1.6511
Cd(CoO2)2,0.29269999999999996
Cd(CoO2)2,0.1413000000000002
Cd(Cu3O4)2,0.0
Cd(CuO2)2,0.3201999999999998
Cd(CuSe)2,0.0
Cd(FeO2)2,1.8272
Cd(FeO2)2,1.4301
Cd(FeO2)2,0.7189000000000001
Cd(FeO2)2,0.8619000000000003
Cd(FeO2)2,1.4565000000000001
Cd(Ga3Te5)2,0.6335999999999999
Cd(GaCl4)2,3.7398
Cd(GaO2)2,1.5793000000000001
Cd(GaO2)2,0.6883000000000004
Cd(GaO2)2,0.6322000000000001
Cd(GaO2)2,1.2302
Cd(GaS2)2,2.1205
Cd(GaSe2)2,1.3487
Cd(GaTe2)2,1.0357000000000003
Cd(HN2)4,3.2058999999999997
Cd(HO)2,1.7019
Cd(HO)2,0.9847
Cd(HO)2,1.6966999999999999
Cd(HO)2,1.637
Cd(HO)2,1.2454999999999998
Cd(HO)2,1.7893
Cd(HgTe2)2,0.31779999999999964
Cd(IO3)2,3.2739000000000003
Cd(IO3)2,3.2417
Cd(In2I3)2,1.5341999999999998
Cd(InS2)2,1.0503999999999998
Cd(InSe2)2,0.9563999999999999
Cd(InSe2)2,0.060699999999999754
Cd(InSe2)2,0.8707999999999998
Cd(InSe2)2,0.7742
Cd(InTe2)2,0.8481000000000005
Cd(Mo3S4)2,0.0
Cd(Mo3Se4)2,0.0
Cd(NO3)2,3.4581
Cd(NiO2)2,0.125
Cd(PN2)2,1.2364000000000006
Cd(PO3)2,3.9273000000000002
Cd(PO3)2,3.7171
Cd(PO3)2,3.9676
Cd(Pt3O4)3,0.0
Cd(PtO2)3,0.21370000000000022
Cd(RhO2)2,0.8366999999999996
Cd(SbO3)2,1.4136000000000006
Cd(W3Br7)2,2.0397
Cd10As6HClO25,1.1326999999999998
Cd12Ge17(B4O29)2,0.00010000000000021103
Cd13(In13Se27)2,0.000500000000000167
Cd13I28,0.0
Cd15As9Cl2O37,0.9608
Cd18Sn19O56,0.0
Cd2(GeO3)3,0.0
Cd2(TeO3)3,1.7487
Cd2AgAu,0.0
Cd2AgPt,0.0
Cd2AgRh,0.0
Cd2As2O7,1.5916
Cd2As3Br,0.7736000000000001
Cd2As3I,0.7611999999999997
Cd2AsCl2,1.0845000000000002
Cd2AsHO5,1.5943
Cd2AsO4F,1.7050999999999998
Cd2B2O5,2.4657
Cd2B6PbO12,3.5842
Cd2BO4,1.2871
Cd2Bi2(TeSe)3,0.0
Cd2Bi6O11,0.7775999999999996
Cd2Bi6O11,1.8321
Cd2BiAsO6,2.0584000000000002
Cd2Cu(PO4)2,0.47540000000000004
Cd2Cu10Sb4S13,0.3896000000000006
Cd2Fe(CN)6,2.609
Cd2Fe3Cu10(SnSe4)5,0.0
Cd2Ga2Se5,1.9824
Cd2GaAg(SeS)2,0.057599999999999874
Cd2GaAg(SeS)2,0.0
Cd2GaAgS4,1.0437
Cd2GaAgSe4,0.0040000000000000036
Cd2GaAgSe4,0.0
Cd2GaCuS4,0.0
Cd2GaCuSe4,0.0864999999999998
Cd2GaCuTe4,0.3503000000000003
Cd2Ge7O16,2.1004
Cd2GeAs4,0.04499999999999993
Cd2GeO4,1.0923000000000003
Cd2H11C2NCl5O2,0.23240000000000016
Cd2H18C8O17,2.7824999999999998
Cd2H2SO6,2.7607
Cd2H2SO6,2.616
Cd2H3ClO3,2.17
Cd2Hg,0.0
Cd2Hg13(As2Cl3)4,1.4033
Cd2Hg2S2O11,0.0254
Cd2In3Ag3Te8,1.1214
Cd2InAgS4,0.18050000000000033
Cd2InAgTe4,0.30059999999999976
Cd2InCuSe4,0.0
Cd2InCuTe4,0.17659999999999965
Cd2Mo15Se19,0.0
Cd2Mo3O8,1.5881000000000003
Cd2MoWO8,2.7112
Cd2Ni6Te3PbO18,1.5835999999999997
Cd2Os(CN)6,2.4507
Cd2Os2O7,0.0
Cd2P2H10CCl2O11,3.7165
Cd2P2O7,2.7138999999999998
Cd2P3Br,1.1583
Cd2P3Cl,1.2012
Cd2P3Cl,1.2134999999999998
Cd2P3I,1.0877000000000003
Cd2P6O17,4.2535
Cd2PCl2,1.5027
Cd2PO4F,2.3713
Cd2PbO4,0.0
Cd2PdRh,0.0
Cd2PtRh,0.0
Cd2Re2O7,0.0
Cd2RhAu,0.0
Cd2Ru(CN)6,2.6444
Cd2Ru2O7,0.0
Cd2SO6,0.2756
Cd2SO6,0.0
Cd2Sb2O7,0.3778000000000006
Cd2Sb2O7,0.5581
Cd2Sb5O2F31,0.0
Cd2Sb6S11,0.36519999999999975
Cd2SeS,0.7074
Cd2Si(P2O7)2,4.0752
Cd2Si(P2O7)2,3.7174
Cd2Si5N8,1.6550000000000002
Cd2SiO4,1.4629999999999999
Cd2SiO4,1.0232
Cd2SiO4,1.5528999999999997
Cd2SnGeAs4,0.0
Cd2SnO4,0.24499999999999966
Cd2SnO4,0.39979999999999993
Cd2SnO4,0.22040000000000015
Cd2Tc2O7,0.0
Cd2Te2O7,1.7272999999999996
Cd2TeCl2O3,3.171
Cd2TeS,0.05819999999999981
Cd2TeSe,0.2026000000000001
Cd2TeSe,0.18890000000000007
Cd2TeSe,0.4237000000000002
Cd3(AsO4)2,1.6354
Cd3(BO2)7,0.04459999999999997
Cd3(BO3)2,1.5869999999999997
Cd3(BO3)2,1.4576
Cd3(BiO2)10,0.0
Cd3(ClO)2,1.1749
Cd3(CuP5)2,1.2626
Cd3(InSe3)2,1.1009
Cd3(PO4)2,2.2063
Cd3(PO4)2,2.6444
Cd3(Pt3O4)10,0.0
Cd3(SeO3)4,0.118
Cd3Ag,0.0
Cd3As,0.0
Cd3As2,0.0
Cd3As2,0.15620000000000012
Cd3AsCl3,1.4485
Cd3AsI3,0.8399000000000001
Cd3Au,0.0
Cd3Au8,0.0
Cd3B4(PbO4)3,2.6739999999999995
Cd3BPO7,2.0403
Cd3Bi,0.0
Cd3Co2H44Br12(N3O)4,2.83
Cd3Fe2(GeO4)3,1.9028000000000005
Cd3Fe2Cu10(SnSe4)5,0.0
Cd3FeS4,0.0
Cd3FeSe4,0.0
Cd3Ga,0.0
Cd3Ga2(GeO4)3,1.7373000000000003
Cd3Ga5O12,9.999999999998899e-05
Cd3Ge,0.0
Cd3GeO6,0.0
Cd3H14S3(NO8)2,3.3120000000000003
Cd3H16C8(N10F)2,2.9772
Cd3H18S4N2O21,3.6861
Cd3H28C12(N15O)2,2.3781
Cd3H2CSeO8,2.763
Cd3H6C2I6(NO)2,2.5574
Cd3Hg,0.0
Cd3In,0.0
Cd3InAu12,0.0
Cd3Ir,0.0
Cd3Ni,0.0
Cd3P2,0.0
Cd3P2,0.0018000000000002458
Cd3PCl3,1.8279
Cd3PI3,1.2987000000000002
Cd3Pb,0.0
Cd3Pb2Se4(IO6)2,2.7977
Cd3Pd,0.0
Cd3Pt,0.0
Cd3Se3O10,2.87
Cd3Se4,0.45220000000000005
Cd3Si2Pb3O10,1.3925
Cd3SiO5,0.9679
Cd3TeO6,0.5061
Cd41Ir8,0.0
Cd43Pd8,0.0
Cd4As2Br3,0.9704
Cd4As2Cl3,0.8937
Cd4As2I3,1.1745999999999999
Cd4AsPI3,1.4478000000000002
Cd4B6O13,2.4314
Cd4Bi2O7,0.5824000000000003
Cd4BiB3O10,2.2263
Cd4CoS5,0.2391000000000003
Cd4FeCu10(SnSe4)5,0.0
Cd4FeS5,0.0
Cd4Ge(SeS)3,1.5844
Cd4GeS6,1.3548999999999998
Cd4GeSe6,0.7557
Cd4HgSe5,0.06769999999999998
Cd4Mo3WO16,2.4773
Cd4MoW3O16,2.7918000000000003
Cd4NiH20(ClO)10,3.4227999999999996
Cd4OF6,1.8997
Cd4P2Br3,1.3992999999999998
Cd4P2Cl3,1.3836
Cd4P2I3,1.379
Cd4P6SN12,2.9902
Cd4SF6,1.8553000000000002
Cd4SF6,0.8527
Cd4Sb2I3,1.1312000000000002
Cd4Si(SeS)3,1.1219
Cd4SiS6,1.4382000000000001
Cd4SiSe6,0.8215999999999999
Cd4Te3Se,0.6374
Cd4Te3Se,0.4506999999999999
Cd4Te5Pb,1.2262999999999997
Cd4Te6Cl6O13,3.3116999999999996
Cd4TeSe3,0.37250000000000005
Cd5(S2Cl)2,1.7228999999999999
Cd5(S2Cl)2,1.4495
Cd5(SiO5)2,0.0
Cd53Pd16,0.0
Cd5Au3,0.0
Cd5Bi6(Cl3O2)4,2.5055000000000005
Cd5Cu2,0.0
Cd5Fe2(P2O7)4,1.5868000000000002
Cd5Ge(PO6)2,1.8862999999999999
Cd5H18C8N20(Cl2O)2,2.8508
Cd5Mo2(P2O7)4,2.5954
Cd5Ni,0.0
Cd5P3ClO12,2.1605999999999996
Cd5P3O13,0.1273000000000002
Cd5Si(PO6)2,2.0401
Cd5Si2PO12,0.0
Cd5Te4S,0.3696999999999999
Cd5TeS4,0.5646000000000002
Cd5TeS4,0.01429999999999998
Cd6(CoO3)5,0.9162000000000001
Cd6(CoO3)5,0.0
Cd7(P2Cl3)2,1.7985
Cd7P10,1.1063999999999998
Cd7P10,1.4513999999999996
Cd7Te7Cl8O17,3.3398
Cd85Pd27,0.0
Cd8Ag5,0.0
Cd8Au5,0.0
Cd8Cu7P30,0.8677000000000001
Cd9(InSe2)20,0.0
CdAg,0.0
CdAg2Au,0.0
CdAg2GeS4,0.9337
CdAg2GeS4,0.5785
CdAg2Sn3S8,0.6431999999999998
CdAg2SnS4,0.0
CdAg2SnSe4,0.0
CdAg3,0.0
CdAg4Ge2S7,0.6329000000000002
CdAgAu2,0.0
CdAgO2,0.0
CdAgPd2,0.0
CdAgSb,0.0
CdAs,0.09189999999999987
CdAs2,0.13319999999999999
CdAs2(XeF5)4,2.3693999999999997
CdAs2HF13,3.9677
CdAs2S2(OF3)4,3.4985000000000004
CdAsP,0.4182000000000001
CdAsPd5,0.0
CdAsPt5,0.0
CdAu,0.0
CdAu3,0.0
CdAuO2,0.8955
CdAuO2,0.0
CdB10H6O19,4.497
CdB2F8,5.4624
CdB2XeF10,2.8874
CdB4O7,3.9877000000000002
CdB6H12(N2O5)2,4.3355999999999995
CdBi12(Cl7O6)2,1.5446000000000004
CdBi3,0.0
CdBi8(Br5O4)2,0.7279999999999998
CdBi8(Cl5O4)2,1.3976000000000002
CdBiBF10,2.0295
CdBiBrO2,1.0229
CdBiClO2,2.8427
CdBiIO2,1.2997999999999994
CdBiO3,0.7669999999999999
CdBiS2Br,1.7294999999999998
CdBiS2Cl,1.9160000000000004
CdBiSe2Br,1.3885999999999998
CdBiSe2I,1.2705000000000002
CdBr2,2.9381
CdBr2,2.8798
CdBr2,2.8551
CdBrO,0.0
CdC2(NO)4,2.4484
CdC2(SN)2,3.3015999999999996
CdCN2,2.3076
CdCO3,2.6226000000000003
CdCl2,3.1363
CdCl2,3.5244
CdCl2,2.8987
CdCl2,3.5155000000000003
CdCo(PO3)4,2.5498000000000003
CdCo3(PO3)8,3.0064
CdCo3N,0.0
CdCoAsHO5,1.0398
CdCoCu3Se4,0.0
CdCoF5,0.42569999999999997
CdCoH18N6Cl5,2.4999
CdCoO3,0.0
CdCoO3,0.13310000000000022
CdCu(SeO3)2,0.0
CdCu2,0.0
CdCu2(BO3)2,0.10600000000000032
CdCu2GeS4,0.3884999999999996
CdCu2GeSe4,0.0
CdCu2GeSe4,0.0371999999999999
CdCu2GeTe4,0.0
CdCu2O3,0.0
CdCu2SiS4,0.9802999999999997
CdCu2SiSe4,0.33999999999999986
CdCu2SiTe4,0.2999999999999998
CdCu2Sn3S8,0.23399999999999999
CdCu2SnS4,0.0
CdCu2SnSe4,0.0
CdCu2SnTe4,0.0
CdCu3,0.0
CdCu3NiSe4,0.0
CdCu4H14(SO9)2,0.0
CdCuAsHO5,0.0
CdCuF4,0.5016
CdCuH8(ClO)4,0.3077
CdCuP2O7,0.035900000000000265
CdF2,2.7418
CdF2,2.8977000000000004
CdFe(PS3)2,0.5899999999999999
CdFe2Sb2(PO4)6,2.8426
CdFe4Cu10(SnSe4)5,0.0
CdFe4NiO8,1.0558999999999998
CdFeCu4(SnSe4)2,0.0
CdFeO3,0.0
CdFeSn(PO4)3,0.0
CdGa(AgS2)2,0.0
CdGa(AgSe2)2,0.0
CdGa2(SeS)2,1.6405
CdGa4As4S,0.17379999999999995
CdGa4As4Se,0.04219999999999979
CdGa4HgTe8,0.3917999999999999
CdGaH14O7F5,4.338
CdGaRh2,0.0
CdGe(BiO3)2,1.9144999999999994
CdGe(BiO3)2,2.1388000000000003
CdGe2O5,1.4703000000000004
CdGe7N10,1.8344
CdGeAs2,0.008500000000000174
CdGeAsP,0.09769999999999968
CdGeN2,0.7705000000000002
CdGeN2,0.7351000000000001
CdGeN2,0.9590999999999998
CdGeO3,0.8481000000000001
CdGeO3,1.5369000000000002
CdGeO3,1.5058
CdGeO3,1.301
CdGeO3,1.4099
CdGeP2,0.0
CdGeP2,0.6455000000000002
CdH10(C2O3)4,2.9143
CdH10C3NCl3,4.1537
CdH10S2(NO2)4,4.3338
CdH12C2(NCl2)2,3.4379
CdH12C2S2(N3Cl2)2,3.5551000000000004
CdH12C2S2(N4Cl)2,4.015
CdH12C4Br3N,3.4554
CdH12C4I2(NO)4,3.3438999999999997
CdH14C5(NCl)3,3.9333
CdH14C8(NO3)2,3.4366000000000003
CdH16C4(Br2N)2,3.7185
CdH16C4(NCl2)2,3.3931
CdH16C4S4(N4Cl)2,3.1973000000000003
CdH16C4S4(N5O3)2,3.1371
CdH18Se4(N2O7)2,3.568
CdH2(CO2)2,4.2235
CdH2(SO4)2,4.189
CdH20C2S2(NO2)6,4.4107
CdH20N6OF2,3.6288
CdH24C4(BrN2)6,3.4789
CdH2C4(S3N2)2,2.3750999999999998
CdH2SO5,3.4934
CdH2SeO4,3.7981
CdH2SeO5,2.5187
CdH3Cl3O,2.9615
CdH3NO5,3.2456
CdH4(BrO4)2,3.9715
CdH4(C2O3)2,2.6837
CdH4(C2O3)2,2.4907999999999997
CdH4Br3N,2.5461
CdH4C4(S2N3)2,2.8573
CdH4CN2Cl2O,3.5746
CdH4NCl3,3.5397
CdH4S2O5,3.2189
CdH5Br3N2,2.8322
CdH5N2F3,4.1228
CdH6(CO3)2,4.5222999999999995
CdH6(NCl)2,3.5423999999999998
CdH6C(BrN)3,3.1149
CdH6C(IN)3,2.597
CdH6C2I2(NO)2,2.7712
CdH6C2O7,3.5862
CdH7C3NO6,4.7526
CdH8(NO5)2,3.5725
CdH8(NO5)2,3.5094
CdH8(NO5)2,3.4636
CdH8C2Br3N,3.3781
CdH8C2NCl3,4.0526
CdH8C2S2(BrN2)2,3.1704
CdH8C2S2(N2Cl)2,3.8023
CdH8C4(BrN4)2,3.4057000000000004
CdH8C4(S2N3)2,3.2771999999999997
CdH9C3NCl3,0.0
CdH9C3SBrCl2O,3.7859
CdHClO,2.4655
CdHOF,1.8626
CdHg2,0.0
CdHg2SO6,1.3352
CdHg2SeO6,0.999
CdHg2SeO6,0.9505999999999999
CdHg3,0.0
CdHg3C6S6(N3Cl)2,0.0
CdHg3Te4,0.14860000000000007
CdHg4(AsI2)2,0.4617
CdHg4C6S6(Br2N3)2,1.9085
CdHg4Se5,0.09960000000000002
CdHg4Se5,0.0
CdHg4Te5,0.0
CdHg6(As2Br3)2,1.3414
CdHg6(Sb2I3)2,0.8608999999999998
CdHgAsBr,1.0028000000000001
CdHgC4(SN)4,2.4633
CdHgO2,0.32910000000000006
CdHgO2,0.35929999999999995
CdHgPd2,0.0
CdHgS4,0.0
CdHgSe2,0.0
CdHgTe2,0.0
CdI2,2.3874