formula,band_gap
CaV(GeO3)2,0.38070000000000004
CaV(GeO3)2,0.43769999999999953
CaV(PO3)4,3.1038000000000006
CaV(Si2O5)2,1.9167000000000005
CaV(SiO3)2,2.1804000000000006
CaV(SiO3)2,1.4277000000000006
CaV2(BiO5)2,0.5859000000000001
CaV2(CuO4)2,0.21660000000000013
CaV2(PO4)2,2.0147000000000004
CaV2(PO4)3,0.8128000000000002
CaV2(PO5)2,1.8731
CaV2(PO5)2,1.8445
CaV2CoO7,2.0284
CaV2CuO7,0.31299999999999994
CaV2Ni2(P2O9)2,1.0623
CaV2O4,0.01980000000000004
CaV2O4,1.0817999999999999
CaV2O4,0.0
CaV2O4,1.6522000000000001
CaV2O4,1.3266999999999998
CaV2O4,1.5513
CaV2O5,2.1662
CaV2O5,0.0
CaV2O6,1.5352000000000001
CaV2O6,2.8812
CaV2P2(H4O7)2,2.3443
CaV2P2(H4O7)2,0.13710000000000022
CaV2P2O9,1.5018000000000002
CaV2P3HO12,1.1908999999999996
CaV2Zn2(SiO5)2,1.7289999999999996
CaV2Zn2(SiO5)2,1.9263
CaV3(P2O7)2,2.6224999999999996
CaV3O7,2.2076000000000002
CaV3P3O13,1.4322
CaV4(AgO6)2,1.9174000000000002
CaV4(CoO4)3,0.0
CaV4(CoO4)3,0.7233
CaV4(CoO7)2,0.21829999999999994
CaV4(CuO4)3,0.0
CaV4(CuO7)2,0.5880000000000001
CaV4(NiO6)2,0.0
CaV4(NiO6)2,0.9981
CaV4(PO5)4,1.3294000000000001
CaV4(PO5)4,0.8935000000000002
CaV4(PdO4)3,0.0
CaV4Co(CuO6)2,0.0
CaV4O10,0.9802
CaV4O10,0.14129999999999998
CaV4O6,0.2776000000000005
CaV4O6,0.0
CaV4O6,0.3440000000000003
CaV4O8,0.0
CaV4O8,0.6497000000000002
CaV4O9,2.5061
CaV5H19O23,2.0364999999999998
CaV5O7,0.4382999999999999
CaV5O7,0.5758999999999999
CaV5O7,0.5870999999999995
CaV5O7,0.0
CaVAs2O7,2.2981
CaVAsO5,1.3450999999999995
CaVBiO5,3.1569
CaVBiO5,3.2483999999999997
CaVBiO6,0.4436
CaVCuHO5,0.5316000000000001
CaVF4,1.9666000000000001
CaVF5,0.24540000000000006
CaVF5,0.0
CaVF6,0.0
CaVFe(P2O7)2,1.7576000000000003
CaVFe(P2O7)2,0.001200000000000312
CaVFe(P2O7)2,1.8609
CaVFe(P2O7)2,1.9354000000000002
CaVFe(P2O7)2,1.6683000000000001
CaVN2,0.0
CaVNiP2O9,0.0
CaVO3,0.0
CaVO3,0.26060000000000016
CaVO3,0.43389999999999995
CaVP2O7,2.1767
CaVP2O7,2.8816
CaVP2O7,3.3773999999999997
CaVSi4(H2O5)3,0.6960999999999999
CaVSi4H8O15,3.1778999999999997
CaVSi4O11,3.3626
CaVSiO5,1.1317000000000004
CaVSnWO6,0.4579999999999993
CaW6NCl18,0.10919999999999996
CaWF5,3.2191
CaWF5,3.4511000000000003
CaWF6,3.7379
CaWN3,0.5612000000000004
CaWO3,1.9784000000000006
CaWO4,4.2242999999999995
CaWO4,2.6781
CaWO4,4.3443
CaY,0.0
CaY2(FeO2)4,2.2997000000000005
CaY2(GeO3)4,3.2152000000000003
CaY2BeO5,4.0274
CaY2O4,4.1546
CaY2O4,3.1247
CaY2O4,3.6651
CaY3Ti4O12,0.0
CaY4Sb3O14,0.0
CaY5(MoO6)2,1.8387999999999995
CaY5(MoO6)2,0.1786999999999992
CaY5(MoO6)2,1.9019
CaY5(MoO6)2,1.8908
CaYAl3O7,4.202299999999999
CaYAl3O7,4.307
CaYAlO4,3.2897
CaYBO4,4.3059
CaYCd2,0.0
CaYGa3O7,3.1788
CaYHg2,0.0
CaYMg14,0.0
CaYMg14O16,0.0
CaYMg30O32,0.3476999999999997
CaYMg30O32,0.3503999999999987
CaYMg6,0.0
CaYMg6O8,0.0
CaYMn2O6,0.0
CaYMn2O6,0.4279999999999995
CaYNb2O7,0.0
CaYP7O20,5.369
CaYPd2,0.0
CaYPt2,0.0
CaYRh2,0.0
CaYSiO5,0.0
CaYSiO5,0.06630000000000003
CaYTi2O6,0.0
CaYZn2,0.0
CaZn,0.0
CaZn(CO3)2,3.9421
CaZn(GeO3)2,2.4804
CaZn(SiO3)2,4.0565999999999995
CaZn11,0.0
CaZn13,0.0
CaZn2,0.0
CaZn2(H5O4)2,3.829
CaZn2(H5O4)2,3.303
CaZn2(PO4)2,3.7871999999999995
CaZn2(SiO4)2,0.22940000000000005
CaZn2H12(BrO)6,3.5949
CaZn2Si2HO7,2.064
CaZn3,0.0
CaZn3Ni2,0.0
CaZn3O4,1.3153000000000001
CaZn3Se4,2.1424
CaZn5,0.0
CaZnAg,0.0
CaZnAsHO5,2.6373999999999995
CaZnF4,5.1236
CaZnFe(AsO5)2,0.0
CaZnGe,0.0
CaZnO2,1.5973000000000002
CaZnPb,0.0
CaZnPd,0.0
CaZnSO,2.6853
CaZnSi,0.0
CaZnSi3O8,4.5515
CaZnSiH2O5,3.4221000000000004
CaZnSn,0.0
CaZnSnWO6,2.927
CaZr(PO4)2,4.330299999999999
CaZr(SO4)3,3.8342
CaZr2PbO6,3.1313999999999997
CaZr3P2(SO6)4,3.2769
CaZr3SiS5O24,2.5626
CaZr4(PO4)6,4.1720999999999995
CaZr4(PbO4)3,3.2466999999999997
CaZr4O9,3.8352999999999997
CaZr4O9,2.2314000000000003
CaZrAl9BO18,4.8919
CaZrAl9BO18,4.8628
CaZrF6,6.6537999999999995
CaZrGeO5,3.6780000000000004
CaZrN2,0.3938000000000006
CaZrNbFeO7,2.4696999999999996
CaZrNbFeO7,2.2272999999999996
CaZrNbInO6,0.5202
CaZrO3,3.8263000000000003
CaZrO3,3.2122
CaZrO3,3.4707
CaZrRh2,0.0
CaZrS3,1.1878000000000002
CaZrSi2O7,4.2287
CaZrSi3H4O11,4.6716999999999995
CaZrSi6H4O17,4.8014
CaZrSi6O17,0.8641
CaZrTi2O7,2.9332000000000003
CaZrTlF7,5.5631
CaZrV2O8,2.525
Cd,0.0
Cd(AgI2)2,1.7741000000000002
Cd(AgO2)2,0.5702
Cd(AgO2)2,0.427
Ce2(Al3Ir)3,0.020500000000000185
Ce2(Al3Rh)3,0.0
Ce2(Al5Ru)3,0.0
Ce2(B2Rh3)3,0.0
Ce2(CN2)3,0.0
Ce2(CoCu)5,0.0
Ce2(CuGe)3,0.0
Ce2(CuNi)5,0.0
Ce2(Ga3Ir)3,0.007800000000000473
Ce2(Ga3Rh)3,0.0
Ce2(Ga3Ru)3,0.0
Ce2(GeO3)3,0.0
Ce2(InSn)3,0.0
Ce2(MnNi)5,0.0
Ce2(MoO4)3,0.012900000000000134
Ce2(Ni7B2)3,0.0
Ce2(PdRh)3,0.0
Ce2(ReB2)3,0.0
Ce2(SbPd3)3,0.0
Ce2(SeO3)3,0.0
Ce2(Si2Pd7)3,0.0
Ce2(TlSn)3,0.0
Ce2(WO4)3,0.07929999999999993
Ce2(Zn2Ge)3,0.0
Ce2(ZnGe2)3,0.0
Ce20Mg19Zn81,0.0
Ce20Ti11(S22O3)2,0.0
Ce21Fe8Bi7C12,0.0
Ce23Cd4Ir7,0.0
Ce25Ni49P33,0.0
Ce2AgGe6,0.0
Ce2AgHg,0.0
Ce2AgPb,0.0
Ce2AgSn,0.0
Ce2Al11Pd3,0.0
Ce2Al16Pt9,0.0
Ce2Al2Co15,0.0
Ce2Al2PdPt,0.0
Ce2Al3Fe,0.0
Ce2Al3GaPd4,0.0
Ce2Al3Ge4,0.0
Ce2Al3Ru,0.0
Ce2Al3Sn,0.0
Ce2Al41Mo3,0.0
Ce2Al6CuAu,0.0
Ce2AlFe3,0.0
Ce2AlGaNi2,0.0
Ce2AlGe6,0.0
Ce2AlNO3,0.0
Ce2AlRu,0.0
Ce2AlRu2,0.0
Ce2AlSi2O9,0.026399999999999757
Ce2Au,0.0
Ce2B2Ir5,0.0
Ce2B4(IrRh)3,0.0
Ce2B8O15,0.1048
Ce2BPd6,0.0
Ce2Bi,0.0
Ce2Bi5Rh3,0.0
Ce2BiN,0.0
Ce2BiO2,0.0
Ce2Br3N,0.0
Ce2Br5,0.0
Ce2C(NO)2,0.0
Ce2C2Cl,0.0
Ce2C3,0.0
Ce2CN3Cl,0.0
Ce2Cd(SeO)2,0.0
Ce2Cd17,0.0
Ce2CdCu2,0.0
Ce2CdHg,0.0
Ce2CdIn,0.0
Ce2CdPb,0.0
Ce2CdPd2,0.0
Ce2CdPt2,0.0
Ce2CdS4,0.0
Ce2CdSb4,0.0
Ce2CdSe4,0.0
Ce2Co12P7,0.0
Ce2Co16Cu,0.0
Ce2Co17,0.0
Ce2Co17H3,0.0
Ce2Co3Ge4Ru,0.0
Ce2Co3Ge5,0.0
Ce2Co3Si5,0.0
Ce2Co5B2,0.0
Ce2Co7,0.0
Ce2Co7B3,0.0
Ce2CoGe4Ru3,0.0
Ce2CoRu3,0.0
Ce2CoSi3,0.0
Ce2CrN3,0.0
Ce2Cu(NO)2,0.0
Ce2Cu11Au,0.0
Ce2Cu3Sb4,0.0
Ce2CuBiS5,0.0
Ce2CuGe3,0.0
Ce2CuGe6,0.0
Ce2CuSi3,0.0
Ce2Dy2O7,1.6279
Ce2Dy2O7,1.8007
Ce2Fe(SeO)2,0.0
Ce2Fe12Co5,0.0
Ce2Fe12Co5N3,0.0
Ce2Fe12P7,0.0
Ce2Fe14B,0.0
Ce2Fe14C,0.0
Ce2Fe17,0.0
Ce2Fe17C3,0.0
Ce2Fe17H3,0.0
Ce2Fe17N3,0.0
Ce2Fe20Si2C,0.0
Ce2Fe2S5,0.0
Ce2Fe2Se2O3,0.0
Ce2Fe2Si2C,0.0
Ce2Fe3Rh,0.0
Ce2FeRu3,0.0
Ce2FeSi3,0.0
Ce2Ga10Ni,0.0
Ce2Ga10Pd,0.0
Ce2Ga12Cu,0.0
Ce2Ga12Ni,0.0
Ce2Ga12Pd,0.0
Ce2Ga2Co15,0.0
Ce2Ga2Fe15,0.0
Ce2Ga3Cu,0.0
Ce2Ga5Au3,0.0
Ce2Ga5Cu3,0.0
Ce2Ga7Pd,0.0
Ce2Ga9CoGe2,0.0
Ce2Gd2O7,1.4320999999999997
Ce2Ge2IrRh,0.0
Ce2Ge3Rh,0.0
Ce2Ge4Pt7,0.0
Ce2Ge5Ir3,0.0
Ce2Ge5Rh3,0.0
Ce2Ge6Au,0.0
Ce2Ge6Pd,0.0
Ce2Ge6Pt,0.0
Ce2H16S3O20,0.30820000000000025
Ce2H5,0.0
Ce2H8S3O16,0.04540000000000033
Ce2HfCo16,0.0
Ce2HfS5,0.0
Ce2HfSe5,0.0
Ce2HgPb,0.0
Ce2In,0.0
Ce2In2PdRh,0.0
Ce2In3Cu,0.0
Ce2In3Ru2,0.0
Ce2In5Pd4,0.0
Ce2In8Co,0.0
Ce2In8Ir,0.0
Ce2In8Pd,0.0
Ce2In8Pt,0.0
Ce2In8Rh,0.0
Ce2InAg,0.0
Ce2InAu2,0.0
Ce2InCu2,0.0
Ce2InCuSe5,0.0
Ce2InGe2,0.0
Ce2InNi2,0.0
Ce2InPd2,0.0
Ce2InPt2,0.0
Ce2InRh2,0.0
Ce2Ir7,0.0
Ce2Mg,0.0
Ce2Mg17,0.0
Ce2Mg17Ru4,0.0
Ce2Mg5Au,0.0
Ce2MgAl,0.0
Ce2MgCd,0.0
Ce2MgCo9,0.0
Ce2MgCu2,0.0
Ce2MgGe2,0.0
Ce2MgIn,0.0
Ce2MgNi2,0.0
Ce2MgPb,0.0
Ce2MgS4,0.0
Ce2MgS4,0.13959999999999972
Ce2MgSe4,0.010800000000000587
Ce2MgSe4,0.0
Ce2MgSe4,0.11149999999999993
Ce2MgSe4,0.1391
Ce2MgSi2,0.0
Ce2MgTi4O12,0.0
Ce2MgTi4O12,0.0411999999999999
Ce2MgV2O8,0.47360000000000024
Ce2MgZn,0.0
Ce2Mn(SeO)2,0.0
Ce2Mn17C2,0.0
Ce2Mn2Se2O3,0.0
Ce2Mn3Al,0.0
Ce2Mn3Cu9As7,0.0
Ce2Mn3Cu9P7,0.0
Ce2Mn3Si4Pd,0.0
Ce2Mn7Al10,0.0
Ce2MnN3,0.0
Ce2MnSi4Pd3,0.0
Ce2Mo2C3,0.0
Ce2Mo4O15,0.05379999999999985
Ce2NCl3,0.0
Ce2Nb2S7O30,0.6364000000000001
Ce2Nd2O7,1.7118000000000002
Ce2Nd2O7,1.6430000000000002
Ce2Nd2O7,2.0728
Ce2Ni12As7,0.0
Ce2Ni12P5,0.0
Ce2Ni12P7,0.0
Ce2Ni22C3,0.0
Ce2Ni2Sn,0.0
Ce2Ni3Ge5,0.0
Ce2Ni5B4,0.0
Ce2Ni5C3,0.0
Ce2Ni7,0.0
Ce2Ni7P4,0.0
Ce2NiB10,0.0
Ce2NiGe3,0.0
Ce2NiGe6,0.0
Ce2NiPt,0.0
Ce2NiRu3,0.0
Ce2NiSn2Pt,0.0
Ce2NiSn4,0.0
Ce2O3,0.0
Ce2P2AuO,0.0
Ce2P3Au,0.0
Ce2PPt8,0.0
Ce2PbS4,0.0
Ce2PbSe4,0.0
Ce2Pd2Pb,0.0
Ce2PrO6,0.0
Ce2Re2Si2C,0.0
Ce2Re3Si5,0.0
Ce2ReC2,0.0
Ce2S2O,0.0
Ce2S3,0.0
Ce2S4O17,0.14549999999999996
Ce2SO2,0.0
Ce2Sb,0.0
Ce2Sb2Se5,0.0
Ce2Sb4Ir3,0.0
Ce2Sb4Rh3,0.0
Ce2SbAu3,0.0
Ce2SbO2,0.0
Ce2SbS5Br,0.0
Ce2SbTe,0.0
Ce2Sc3Si4,0.0
Ce2ScSi2,0.0
Ce2Se3,0.0
Ce2Se4O17,0.4222
Ce2SeF4,0.0
Ce2SeN2,0.9475999999999996
Ce2SeO2,0.0
Ce2SeS,0.0
Ce2Si2Ni15,0.0
Ce2Si2NiPt,0.0
Ce2Si2O7,0.0
Ce2Si2O7,0.07010000000000005
Ce2Si2O7,0.04940000000000033
Ce2Si2Sn,0.0
Ce2Si3,0.0
Ce2Si3Ni,0.0
Ce2Si3Rh,0.0
Ce2Si4OsRu3,0.0
Ce2Si4Pt7,0.0
Ce2Si5Ir3,0.0
Ce2Si5Ni17,0.0
Ce2Si5Ni3,0.0
Ce2Si5Pd3,0.0
Ce2Si5Rh3,0.0
Ce2Si7,0.0
Ce2Si7Rh15,0.0
Ce2Si9Ni17,0.0
Ce2SiGe,0.0
Ce2SiPd14,0.0
Ce2SiS5,0.2748999999999997
Ce2SiS5,0.0
Ce2SiSeO4,0.0
Ce2SiTeO4,0.0
Ce2Sm2O7,2.0294999999999996
Ce2SmS4,0.0
Ce2Sn3,0.0
Ce2Sn5,0.0
Ce2SnHg,0.0
Ce2SnPd2,0.0
Ce2SnS5,0.0
Ce2SnSe4,0.0
Ce2Ta2O9,1.5320999999999998
Ce2Ta3(SeO4)2,0.0
Ce2Te3,0.0
Ce2Te4Cl2O11,1.4548
Ce2Te4O11,0.0
Ce2Te5,0.0
Ce2Te7Br2O17,1.2014
Ce2Te7Cl2O17,1.3777
Ce2TeMo6(H6O7)6,0.21829999999999972
Ce2TeO2,0.0
Ce2TeSe,0.0
Ce2Th2O7,0.0
Ce2ThO6,2.0195999999999996
Ce2ThO6,1.9619
Ce2ThS3,0.0
Ce2ThS5,0.0
Ce2Ti2Fe22H,0.0
Ce2Ti2O7,0.0
Ce2Ti2SiO9,0.0
Ce2TiCo16,0.0
Ce2TiO5,0.0
Ce2TlAg,0.0
Ce2U3O10,0.0
Ce2US5,0.0
Ce2USe4,0.0
Ce2USe5,0.0
Ce2UTe4,0.0
Ce2VCo16,0.0
Ce2VFeO6,0.0
Ce2WC2,0.0
Ce2WO6,0.7202999999999999
Ce2WO6,0.0
Ce2Y(AlPd)3,0.0
Ce2Y2O7,2.0556
Ce2Y2O7,1.7347000000000001
Ce2Y2O7,1.6482
Ce2YSi2,0.0
Ce2Zn(SeO)2,0.0
Ce2Zn17,0.0
Ce2Zn2Cu5,0.0
Ce2Zn2Ni5,0.0
Ce2Zn2Sn2H3,0.0
Ce2Zn3Cu7,0.0
Ce2Zn4Ru,0.0
Ce2Zn5Sn,0.0
Ce2ZnBi4,0.0
Ce2ZnHg,0.0
Ce2ZnIn,0.0
Ce2ZnNi2,0.0
Ce2ZnPb,0.0
Ce2ZnSb4,0.0
Ce2Zr2O7,0.0
Ce2ZrCo16,0.0
Ce2ZrO6,2.0399000000000003
Ce2ZrO6,2.0796
Ce2ZrO6,1.8408000000000007
Ce2ZrO6,1.9567000000000005
Ce2ZrS5,0.0
Ce2ZrSe5,0.0
Ce3(AgGe)4,0.0
Ce3(AgSn)4,0.0
Ce3(Al2Si3)2,0.0
Ce3(Al3Os)4,0.0
Ce3(Al3Pt2)2,0.0
Ce3(Al3Ru)4,0.0
Ce3(AlI)2,0.0
Ce3(BN2)2,0.0
Ce3(CuGe)4,0.0
Ce3(CuSn)4,0.0
Ce3(GaNi)2,0.0
Ce3(GaRh)2,0.0
Ce3(Ge3Pd10)2,0.0
Ce3(GeRh)2,0.0
Ce3(GeRh)4,0.0
Ce3(InRu)2,0.0
Ce3(MgRh2)2,0.0
Ce3(P3Pd10)2,0.0
Ce3(Si3Pd10)2,0.0
Ce3(Si4Ni)2,0.0
Ce3(SiNi)4,0.0
Ce3(SiNi3)2,0.0
Ce3(SiPd)4,0.0
Ce3(SiRh)2,0.0
Ce3(SiRh)4,0.0
Ce3(Sn3Pd2)2,0.0
Ce3(TaN3)2,0.0
Ce33Fe13(B9C17)2,0.0
Ce3Ag,0.0
Ce3AgGeS7,0.04049999999999976
Ce3Al,0.0
Ce3Al11,0.0
Ce3Al3Pd2Pt,0.0
Ce3Al4Co3,0.0
Ce3AlC,0.0
Ce3AlCdS7,0.04669999999999952
Ce3AlCrS7,0.0
Ce3AlFeS7,0.0
Ce3AlN,0.0
Ce3AlO,0.0
Ce3AlVS7,0.0
Ce3AlZnS7,0.0
Ce3As2ClO7,0.0
Ce3AsS3,0.0
Ce3Au,0.0
Ce3B2(ClO2)3,0.0
Ce3BeCrS7,0.0
Ce3Bi4Au3,0.0
Ce3Bi4Pd3,0.0
Ce3Bi4Pt3,0.20420000000000016
Ce3Br6N,0.0
Ce3C2Br3,0.0
Ce3CCl5,0.2093999999999996
Ce3CI5,0.0
Ce3Cd,0.0
Ce3Co11B4,0.0
Ce3Co29(Si2B5)2,0.0
Ce3Co4Sn13,0.0
Ce3Co8Si,0.0
Ce3CoGe2,0.0
Ce3Cr10N11,0.0
Ce3CrS6,0.0
Ce3Cu,0.0
Ce3Cu3Sb4,0.0
Ce3Cu4(P2O)2,0.0
Ce3CuGeS7,0.0
Ce3CuGeSe7,0.0
Ce3CuSiS7,0.007100000000000328
Ce3CuSiSe7,0.0
Ce3CuSnS7,0.0
Ce3CuSnSe7,0.0
Ce3Dy,0.0
Ce3Dy2O9,1.7604999999999995
Ce3Er,0.0
Ce3Ga,0.0
Ce3Ga10Ni,0.0
Ce3Ga2,0.0
Ce3Ga4Cl,0.0
Ce3GaBr3,0.0
Ce3Gd,0.0
Ce3Ge,0.0
Ce3Ge13Ir4,0.0
Ce3Ge13Os4,0.0
Ce3Ge13Ru4,0.0
Ce3Ge5,0.0
Ce3Ge5Pd14,0.0
Ce3GeS2,0.0
Ce3Hf,0.0
Ce3HfSb5,0.0
Ce3Hg,0.0
Ce3Ho,0.0
Ce3In,0.0
Ce3In3Ru2,0.0
Ce3In4Ge,0.0
Ce3InC,0.0
Ce3Ir,0.0
Ce3IrI3,0.0
Ce3LuSe6,0.0
Ce3Mg,0.0
Ce3Mg2InAu3,0.0
Ce3MgAlS7,0.18349999999999955
Ce3Mn(Al3Cu)8,0.0
Ce3MnBi5,0.0
Ce3MoO7,0.0
Ce3NCl6,0.0
Ce3NF6,0.0
Ce3NbS3O4,0.0
Ce3NbSb5,0.0
Ce3Nd2O9,1.8986999999999998
Ce3NdC8,0.0
Ce3Ni13B2,0.0
Ce3Ni2B2N3,0.0
Ce3Ni2Ge7,0.0
Ce3Ni2Sn7,0.0
Ce3NiGe2,0.0
Ce3Os,0.0
Ce3PBr3,0.0
Ce3PI3,0.0
Ce3Pa,0.0
Ce3Pb,0.0
Ce3Pd4,0.0
Ce3Pd5,0.0
Ce3Pm,0.0
Ce3PrO8,0.0
Ce3Pt2,0.0
Ce3Pt4,0.0
Ce3Rh2,0.0
Ce3Rh4Pb13,0.0
Ce3Ru,0.0
Ce3S2O3,0.0
Ce3S3N,0.0
Ce3S3O16,0.0
Ce3S4,0.0
Ce3Sb3Au2,0.0
Ce3Sb4Pt3,0.2721
Ce3Sb4Pt7,0.0
Ce3Sb5Pd6,0.0
Ce3SbAs2,0.0
Ce3Sc,0.0
Ce3Se2NO,0.0
Ce3Se3N,0.0
Ce3Se4,0.0
Ce3Si11Pt23,0.0
Ce3Si2,0.0
Ce3Si2BO10,0.0
Ce3Si2Rh3,0.0
Ce3Si2S8Br,0.08830000000000027
Ce3Si2S8Cl,0.10240000000000027
Ce3Si2S8I,0.11010000000000009
Ce3Si6N11,0.0
Ce3SiAgS7,0.019699999999999385
Ce3SiAgSe7,0.0
Ce3SiCl5O4,0.033199999999999896
Ce3SiI3,0.0
Ce3SiPd5,0.0
Ce3SiPt5,0.0
Ce3SiS2,0.0
Ce3Sm,0.0
Ce3Sn,0.0
Ce3Sn13Ir4,0.0
Ce3Sn13Rh4,0.0
Ce3Sn13Ru4,0.0
Ce3Sn5,0.0
Ce3Sn5Au6,0.0
Ce3Sn6Ru,0.0
Ce3Sn7,0.0
Ce3SnN,0.0
Ce3SnO8,1.0815000000000001
Ce3SnO8,1.5699000000000005
Ce3Ta(Cl3O2)2,0.21150000000000002
Ce3Ta(ClO2)3,0.0
Ce3TaO7,0.0
Ce3Te4,0.0
Ce3Th,0.0
Ce3Th2O9,0.0
Ce3Th3O11,0.2721999999999998
Ce3Th3Si4,0.0
Ce3Th4O14,1.7286000000000001
Ce3Ti,0.0
Ce3Ti6Fe23,0.0
Ce3TiAlS7,0.0
Ce3TiSb5,0.0
Ce3Tl,0.0
Ce3Tm,0.0
Ce3UAl8,0.0
Ce3W(ClO2)3,0.0
Ce3Y,0.0
Ce3Y(InAu2)4,0.0
Ce3Y4O12,1.4851
Ce3YRh4,0.0
Ce3Zn,0.0
Ce3Zn11,0.0
Ce3Zn22,0.0
Ce3Zr5O16,1.7776
Ce3ZrO8,1.4603000000000002
Ce3ZrO8,2.0117000000000003
Ce3ZrSb5,0.0
Ce4(CoB2)3,0.0
Ce4(ErS2)11,0.0
Ce4(FeB2)3,0.0
Ce4(GeS4)3,0.0
Ce4(HoS2)11,0.0
Ce4(LuS2)11,0.0
Ce4(Si3Rh)3,0.0
Ce4(SiS4)3,0.0
Ce4(TmS2)11,0.0
Ce4(YS2)11,0.0
Ce4Al16Ni4C3,0.0
Ce4Al23Ni6,0.0
Ce4Al2O9,0.014199999999999768
Ce4AlCo25,0.0
Ce4As3,0.0
Ce4B14O27,0.16739999999999977
Ce4B2N5,0.0
Ce4Bi3,0.0
Ce4Bi8Pd3,0.0
Ce4C2Br5,0.0
Ce4C4Br3,0.0
Ce4CI6N,0.008099999999999774
Ce4CdIr,0.0
Ce4CdNi,0.0
Ce4CdPd,0.0
Ce4CdPt,0.0
Ce4CdRu,0.0
Ce4Co2Sn5,0.0
Ce4CoS7,0.0
Ce4CoSi6Au,0.0
Ce4CrS7,0.0
Ce4Cu3(SO)4,0.0
Ce4Cu5Sb8,0.0
Ce4DyO9,0.0
Ce4FeSe6O,0.07950000000000035
Ce4Ga2S5O4,0.03059999999999974
Ce4Ga5Br2,0.0
Ce4GaSbS9,0.0
Ce4GdO9,0.0
Ce4Ge3,0.0
Ce4Ge7,0.0
Ce4Ge9Rh13,0.0
Ce4GeS3,0.0
Ce4H11,0.0
Ce4In21Pd10,0.0
Ce4In5S13,0.0
Ce4In8Ni7,0.0
Ce4Mg7Ge6,0.0
Ce4MgRh,0.0
Ce4MgRu,0.0
Ce4Mn3Sb8,0.0
Ce4MnSe6O,0.0
Ce4Ni3Bi8,0.0
Ce4Ni3Pt,0.0
Ce4Ni4Bi3Sb5,0.0
Ce4Pu,0.0
Ce4Re6O19,0.0
Ce4Ru3,0.0
Ce4S3NCl3,0.0
Ce4S3O4,0.0
Ce4S4Cl2O,0.0
Ce4Sb3,0.0
Ce4Se3N2,0.014300000000000423
Ce4Se3N2,0.0
Ce4Se3O4,0.0
Ce4Si2S3O7,0.0
Ce4Si2Se3O7,0.0
Ce4Si3Rh4,0.0
Ce4Si4N6O5,0.07379999999999942
Ce4Si4N7ClO3,0.11139999999999972
Ce4Si4N7ClO3,0.0
Ce4SiI5,0.0
Ce4SiRh12,0.0
Ce4Sm,0.0
Ce4SmO10,0.0
Ce4SmO9,0.0
Ce4Sn25Pd12,0.0
Ce4Sn25Pt12,0.0
Ce4SnO10,1.8258
Ce4SnO10,1.5555000000000003
Ce4Te3N2,0.0
Ce4ThO10,1.6831999999999994
Ce4ThO10,1.7909000000000006
Ce4ThO8,0.0
Ce4ThO9,0.0
Ce4UC10,0.0
Ce4Y2O11,1.8249
Ce4Y6O17,0.9616000000000002
Ce4YO9,0.0
Ce4Zn3Sb8,0.0
Ce4ZrCo25,0.0
Ce4ZrO10,2.0413000000000006
Ce4ZrO10,1.9513000000000007
Ce5(C2Br)3,0.0
Ce5(FeB3)2,0.0
Ce5(In2Pt)2,0.0
Ce5(MgGe)8,0.0
Ce5(SiN3)3,0.0038000000000000256
Ce5AgPb3,0.0
Ce5AgS8,0.0
Ce5AgSe8,0.0
Ce5AgSn3,0.0
Ce5Al2Ru3,0.0
Ce5B4C5,0.0
Ce5Bi3,0.0
Ce5BiSb4,0.0
Ce5C2Br9,0.0
Ce5C2Cl9,0.0
Ce5C2Cl9,0.08760000000000012
Ce5Co19,0.0
Ce5Cu19P12,0.0
Ce5CuBi3,0.0
Ce5CuPb3,0.0
Ce5CuSe8,0.0
Ce5CuSn3,0.0
Ce5Dy2O13,1.2663000000000002
Ce5Ga2Ge,0.0
Ce5Ga3,0.0
Ce5Gd2O13,1.2624000000000004
Ce5Ge2Ir,0.0
Ce5Ge2Pd,0.0
Ce5Ge2Rh,0.0
Ce5Ge2Ru,0.0
Ce5Ge3,0.0
Ce5Ge3C,0.0
Ce5Ge4,0.0
Ce5GeBi2,0.0
Ce5GeSb2,0.0
Ce5Ir4,0.0
Ce5Mg,0.0
Ce5Mg41,0.0
Ce5Nd5Si6,0.0
Ce5NiGe2,0.0
Ce5NiPb3,0.0
Ce5O9,0.0
Ce5P12Ru19,0.0
Ce5Pb3,0.0
Ce5Pb3O,0.0
Ce5Rh4,0.0
Ce5S8,0.0
Ce5Sb3,0.0
Ce5Sb4As,0.0
Ce5Si3,0.0
Ce5Si4,0.0
Ce5Sm2O13,1.3165999999999993
Ce5Sn3,0.0
Ce5Sn3Au,0.0
Ce5Sn4,0.0
Ce5Y2O13,1.0354
Ce5Zr3O16,1.8294999999999995
Ce6Al3Fe11,0.0
Ce6B2(CBr)3,0.0
Ce6Cd4Pd13,0.0
Ce6Ge9(BO15)2,0.18230000000000057
Ce6In14Pt11,0.0
Ce6In5Pd12,0.0
Ce6Mg23As,0.0
Ce6Mg23C,0.0
Ce6Mg23Ge,0.0
Ce6Mg23P,0.0
Ce6Mg23Sb,0.0
Ce6Mg23Si,0.0
Ce6Mg23Sn,0.0
Ce6MnSb15,0.0
Ce6N8O33,0.041099999999999914
Ce6Ni20As13,0.0
Ce6Ni20P13,0.0
Ce6Ni6P17,0.0
Ce6P17Pd6,0.0
Ce6S4BrN3,0.0
Ce6Si4S17,0.5558999999999994
Ce6SiNi4,0.0
Ce6Th4O19,0.10279999999999934
Ce6Y26O51,1.4873000000000003
Ce6Y2O15,1.8196999999999992
Ce7C3I10,0.0
Ce7Ir3,0.0
Ce7Ni3,0.0
Ce7O12,0.0
Ce7Pd3,0.0
Ce7Pt3,0.0
Ce7Rh3,0.0
Ce7Ru3,0.0
Ce7Ti4(Se2O)6,0.0
Ce7ZrO16,1.8269000000000002
Ce8Ag6Ge8O,0.0
Ce8AlPd24,0.0
Ce8C8Cl5,0.0
Ce8Ga3Co,0.0
Ce8GaPd24,0.0
Ce8Gd2O19,1.5231999999999992
Ce8GePd24,0.0
Ce8InPd24,0.0
Ce8Nd2O19,1.9250999999999996
Ce8Ni18P11,0.0
Ce8Pd24Pb,0.0
Ce8Re13B12,0.0
Ce8SbPd24,0.0
Ce8SnPd24,0.0
Ce8U2O21,0.0
Ce9(Ni13P6)2,0.0
Ce9(SbO)5,0.0
Ce9B3C6Br5,0.0
Ce9DyO20,0.0
Ce9GdO20,0.0
Ce9Sb16Cl3,0.0
Ce9SmO20,0.0
Ce9YO20,0.0
CeAg,0.0
CeAg(PO3)4,0.3445999999999998
CeAg(PSe3)2,0.11979999999999968
CeAg(WO4)2,0.08119999999999994
CeAg2,0.0
CeAg3,0.0
CeAg6(NO3)9,2.0387
CeAgAs2,0.0
CeAgAu2,0.0
CeAgGe,0.0
CeAgHg2,0.0
CeAgPb,0.0
CeAgS2O9,0.0
CeAgSb2,0.0
CeAgSn,0.0
CeAl,0.0
CeAl(CuNi)2,0.0
CeAl2,0.0
CeAl2Ag3,0.0
CeAl2BRu2,0.0
CeAl2Cu3,0.0
CeAl2Ni,0.0
CeAl2Pd5,0.0
CeAl2Pt,0.0
CeAl2Pt3,0.0
CeAl3,0.0
CeAl3Ag,0.0
CeAl3Au,0.0
CeAl3Cu,0.0
CeAl3Ni2,0.0
CeAl3Pd,0.0
CeAl3Pd2,0.0
CeAl3Pt,0.0
CeAl3Pt2,0.0
CeAl4,0.0
CeAl4Co,0.0
CeAl4Cu2Si,0.0
CeAl4Ge2Au,0.0
CeAl4Ni,0.0
CeAl4Pd,0.0
CeAl4Si2Ir,0.0
CeAl4Si2Rh,0.0
CeAl5Ni2,0.0
CeAl5Pt3,0.0
CeAl6Pd,0.0
CeAl7Au3,0.0
CeAlAg2,0.0
CeAlAu,0.0
CeAlCo,0.0
CeAlCo4,0.0
CeAlCu,0.0
CeAlCu4,0.0
CeAlGa,0.0
CeAlGe,0.0
CeAlH2Ir,0.0
CeAlIr,0.0
CeAlNi,0.0
CeAlNi4,0.0
CeAlO3,0.0
CeAlPd,0.0
CeAlPd2,0.0
CeAlPt,0.0
CeAlRh,0.0
CeAlRu,0.0
CeAlSi,0.0
CeAlSi2,0.0
CeAs,0.0
CeAs2,0.06930000000000014
CeAs2Au,0.0
CeAs2Pd3,0.0
CeAs3,0.0
CeAsO3,0.060900000000000176
CeAsO3,0.28609999999999935
CeAsO4,0.039200000000000124
CeAsO4F,1.4954999999999998
CeAsPd,0.0
CeAsRh,0.025599999999999845
CeAsRh,0.036300000000000665
CeAsRuO,0.0
CeAsS,0.0
CeAsSe,0.0
CeAu,0.0
CeAu2,0.0
CeAu3,0.0
CeAu6,0.0
CeB2C,0.0
CeB2ClO4,0.13450000000000006
CeB2Ir2C,0.0
CeB2Ir2Rh,0.0
CeB2Ir3,0.0
CeB2O4F,0.2384000000000004
CeB2Pd2C,0.0
CeB2Pt2C,0.0
CeB2Rh2C,0.0
CeB2Rh3,0.0
CeB2Ru,0.0
CeB2Ru2Rh,0.0
CeB2Ru3,0.0
CeB4,0.0
CeB4(IrOs)2,0.0
CeB4ClO8,0.0
CeB4H2ClO8,0.4502999999999995
CeB5H7NO15,0.2798999999999996
CeB6,0.0
CeB8ClO20,0.0
CeBC,0.0
CeBMoO6,0.11580000000000013
CeBN2,0.0
CeBO3,0.029300000000000104
CeBO3,0.058699999999999974
CeBPt2,0.0
CeBPt3,0.0
CeBPt4,0.0
CeBRh3,0.0
CeBS3,0.07869999999999955
CeBe13,0.0
CeBeAl3,0.0
CeBeSiHO5,0.0
CeBi,0.0
CeBi2(Rh2O5)3,0.0
CeBi2Au,0.0
CeBi2SeO4,0.4241999999999999
CeBi3,0.0
CeBiAu2,0.0
CeBiPd,0.0
CeBiPt,0.0
CeBiRh,0.01440000000000019
CeBiS2O,0.0
CeBiW2O9,0.1476999999999995
CeBr3,0.0
CeBrO,0.0
CeC,0.0
CeC2,0.0
CeCO,0.0
CeCO3F,0.07989999999999942
CeCO4,1.2835
CeCd,0.0
CeCd11,0.0
CeCd2,0.0
CeCd2Ag,0.0
CeCd2Cu,0.0
CeCd3,0.0
CeCdAg2,0.0
CeCdAsO,0.0
CeCdAu,0.0
CeCdAu2,0.0
CeCdCu,0.0
CeCdHg2,0.0
CeCdIn,0.0
CeCdNi4,0.0
CeCdO3,1.5446999999999997
CeCdPd,0.0
CeCdPt,0.0
CeCl3,0.011099999999999888
CeClO,0.0
CeCo2,0.0
CeCo2B2C,0.0
CeCo2SiB,0.0
CeCo3,0.0
CeCo3B2,0.0
CeCo3Cu2,0.0
CeCo4B,0.0
CeCo4Cu,0.0
CeCo5,0.0
CeCo5H3,0.0
CeCo5H4,0.0
CeCo5P3,0.0
CeCo9Ge4,0.0
CeCo9Si4,0.0
CeCoC2,0.0
CeCoCuSi2,0.0
CeCoGe,0.0
CeCoGe2,0.0
CeCoGe2Ru,0.0
CeCoGe3,0.0
CeCoGeH,0.0
CeCoRh,0.0
CeCoSb2,0.0
CeCoSb3,0.0
CeCoSi,0.0
CeCoSi2,0.0
CeCoSi2Rh,0.0
CeCoSi3,0.0
CeCr2Si2C,0.0
CeCrB4,0.0
CeCrGe3,0.0
CeCrO3,0.0
CeCrS2O,0.0
CeCrS3,0.0
CeCrSb3,0.0
CeCrSe2O,0.0
CeCrSe3,0.0
CeCu,0.0
CeCu(WO4)2,0.11749999999999972
CeCu2,0.0
CeCu2Si,0.0
CeCu2SiGe,0.0
CeCu4Sn,0.0
CeCu5,0.0
CeCu5Ag,0.0
CeCu5Au,0.0
CeCu5Sn,0.0
CeCu6,0.0
CeCu9Sn4,0.0
CeCuGe,0.0
CeCuGe2,0.0
CeCuGeH,0.2008000000000001
CeCuN2,0.0
CeCuNi,0.0
CeCuPb,0.0
CeCuPt4,0.0
CeCuS2,0.0
CeCuSO,0.0
CeCuSb2,0.0
CeCuSe2,0.0
CeCuSi,0.0
CeCuSi2,0.0
CeCuSi2Ni,0.0
CeCuSi2Pd,0.0
CeCuSi2Ru,0.0
CeCuSn,0.0
CeCuTeO,0.0
CeDy3,0.0
CeDy4S7,0.0
CeDyC4,0.0
CeDyFe4,0.0
CeDyMg2,0.0
CeDyS3,0.0
CeDyZn2,0.0
CeEr,0.0
CeEr3,0.0
CeEr4S7,0.0
CeErIn2,0.0
CeErMg2,0.0
CeErS3,0.0
CeEu2WO6,0.0
CeEu2ZrO6,0.27639999999999976
CeEu2ZrO6,0.06769999999999943
CeEu3,0.0
CeEuAg2,0.0
CeEuAl4,0.0
CeEuB12,0.0
CeEuCd2,0.0
CeEuZn2,0.0
CeF3,0.0
CeF4,2.1473
CeFe(Ni2Ge)4,0.0
CeFe2,0.0
CeFe4(CuO4)3,0.0
CeFe5,0.0
CeFe9Si4,0.0
CeFeB4,0.0
CeFeCo,0.0
CeFeCu,0.0
CeFeGe3,0.0
CeFeNi4,0.0
CeFeO3,0.6735999999999995
CeFeSb2,0.0
CeFeSi,0.0
CeFeSi2,0.0
CeGa,0.0
CeGa2,0.0
CeGa2Co3,0.0
CeGa2Cu3,0.0
CeGa2Ni,0.0
CeGa2Ni3,0.0
CeGa3,0.0
CeGa3Ag,0.0
CeGa3Au,0.0
CeGa3Cu,0.0
CeGa3Ni,0.0
CeGa3Pd,0.0
CeGa3Pd2,0.0
CeGa3Pt,0.0
CeGa4Co9,0.0
CeGa4Os,0.0
CeGa6,0.0
CeGa6Ni,0.0
CeGa6Pd,0.0
CeGa7Fe5,0.0
CeGa8Pd3,0.0
CeGaAg,0.0
CeGaCo,0.0
CeGaCu4,0.0
CeGaGe,0.0
CeGaIr,0.0
CeGaNi,0.0
CeGaNi4,0.0
CeGaO3,0.0
CeGaPd,0.0
CeGaPd2,0.0
CeGaPt,0.0
CeGaPt4,0.0
CeGaRh,0.0
CeGd3,0.0
CeGdN2,0.0
CeGe,0.0
CeGe2,0.0
CeGe2Pt,0.0
CeGe3Ir,0.0
CeGe3Pd5,0.0
CeGe3Pt5,0.0
CeGe3Rh,0.0
CeGe3Ru,0.0
CeGe5,0.0
CeGeAu,0.0
CeGeBi2,0.0
CeGeIr,0.0
CeGePd,0.0
CeGePd2,0.0
CeGePt,0.0
CeGeRh,0.0
CeH(CO2)3,0.20969999999999978
CeH(SeO3)2,0.25099999999999945
CeH14Cl3O7,0.09500000000000003
CeH14Cl3O7,0.3279000000000001
CeH14Cl3O7,0.02259999999999973
CeH16C4Cl3O4,0.18480000000000008
CeH16N7O19,0.2934000000000001
CeH2,0.0
CeH3,0.0
CeH3(CO2)3,0.0
CeH3(SO4)3,0.33779999999999966
CeH3CSO7,0.2860999999999998
CeH3CSO7,0.30429999999999957
CeH8(SO6)2,1.0573