formula,band_gap
Ge2TeN2,0.6868000000000003
Ge2TeSe,0.24659999999999993
Ge2W,0.0
Ge2WO6,2.2472000000000003
Ge2WO6,2.2465
Ge3(BiO3)4,3.4941000000000004
Ge3(BiTe3)2,0.0
Ge3(MoO6)2,2.1691
Ge3(SbO3)4,3.3397
Ge3(SbTe3)2,0.0
Ge3(Te3As)2,0.34279999999999955
Ge3(TeO6)2,1.5608999999999997
Ge3(WO6)2,2.8998999999999997
Ge3As4,0.1620999999999997
Ge3BH4NO8,3.2039
Ge3Bi2O9,2.9793999999999996
Ge3Cl8,3.2077999999999998
Ge3F8,4.2902
Ge3Ir2Se3,0.5894000000000004
Ge3Mo5,0.0
Ge3Mo5C,0.0
Ge3N2,0.37509999999999977
Ge3N4,1.9025999999999996
Ge3N4,1.9150999999999998
Ge3N4,1.6238000000000001
Ge3N4,2.064
Ge3Os2,0.7418000000000005
Ge3Os2,0.8456000000000001
Ge3P6H42N12O25,0.008599999999999997
Ge3Pb11O17,2.1855999999999995
Ge3Pb5O11,2.5011
Ge3Pb5O11,2.4113
Ge3Pb5O12,0.0
Ge3PbO7,2.5635
Ge3PbSe4,0.8687
Ge3Pt2,0.0
Ge3Rh2S3,0.5974000000000004
Ge3Rh2Se3,0.33030000000000026
Ge3Rh5,0.0
Ge3Ru2,0.3814000000000002
Ge3Ru2,0.3435000000000006
Ge3Sb2O9,3.0481
Ge3Te2Se,0.3346
Ge3W5,0.0
Ge4(Mo3W)3,0.0
Ge4Ir,0.0
Ge4PbO9,3.1907
Ge4PbO9,3.5035
Ge4Rh,0.0
Ge4Se9,1.2221
Ge4Te7As2,0.3877000000000006
Ge5(Te4As)2,0.20289999999999964
Ge5(Te4As)2,0.0
Ge5F12,4.3594
Ge5Ir4,0.12790000000000035
Ge5P6O25,3.5718
Ge5Te4Se,0.41440000000000055
Ge6Bi3N11,1.617
Ge6Bi7O22,0.6659999999999999
Ge7F16,4.3788
Ge7H18O23,3.0702000000000003
Ge7H18O23,2.4902
Ge7H18O23,3.1755
Ge7H18O23,2.9941
Ge7H18O23,2.946
Ge7H18O23,2.6785
Ge7H8N2O15,2.9257
Ge7Ir3,0.0
Ge7PbN10,2.6204
Ge8H12C2N2O17,0.6418
Ge8Pd21,0.0
Ge9(Sb5Te12)2,0.0
Ge9Pd25,0.0
GeAs,0.0
GeAs,0.5112999999999999
GeAs2,0.7195999999999998
GeAs3,0.0
GeAsAu,0.1764000000000001
GeAsSe,1.4797
GeAsW,0.0
GeAu3,0.0
GeBi2O5,2.0537999999999994
GeBi2O5,2.3808999999999996
GeBi3,0.0
GeBi4Te7,0.5721000000000007
GeBiH8C2S4N,2.4318999999999997
GeBiPd6,0.0
GeBr2,1.4259
GeBr4,2.9329
GeBr4,2.9647
GeCl4,4.1525
GeClF,2.5216000000000003
GeClO2F5,1.7275
GeF2,4.1384
GeF2,4.0597
GeF4,5.500500000000001
GeH10(N2F3)2,4.7302
GeH10Se3N4,1.5414999999999999
GeH12(NF2)4,2.4704
GeH3Cl,4.7492
GeH4,1.1421999999999999
GeH4,5.9261
GeH4,5.7745
GeH6CI3N,0.9326999999999999
GeH8N2OF6,5.6075
GeI2,2.0087
GeI2,2.0217
GeI2,1.9649999999999999
GeI4,1.996
GeIr,0.0
GeMo3,0.0
GeMoAs,0.0
GeO2,1.3714999999999993
GeO2,1.5228000000000002
GeO2,3.2454
GeO2,3.2493
GeO2,1.2157
GeO2,3.2500999999999998
GeO2,3.2779
GeOs2C8(ClO2)4,2.9678
GeP,0.4889000000000001
GeP,0.0
GeP2,0.0
GeP2O7,3.8284
GeP3,0.0
GePClO2,2.7015000000000002
GePb(S2O7)3,3.9741
GePb2(SeO3)4,3.3095999999999997
GePb3,0.0
GePb3O5,2.2709000000000006
GePb3O5,1.6319
GePb5O7,2.0846999999999998
GePbN2,1.6699000000000002
GePbO3,2.6118999999999994
GePbO3,2.7131
GePbS3,1.7578999999999998
GePd,0.0
GePd2,0.0
GePd5,0.0
GePdS3,1.3441
GePt,0.0
GePt2,0.0
GePt3,0.0
GePtS,1.0195999999999996
GePtSe,0.6596000000000002
GeRh,0.0
GeRh2,0.0
GeRh3,0.0
GeRu,0.12909999999999933
GeS,0.5488
GeS,1.2375999999999996
GeS2,1.6051000000000002
GeS2,2.2279
GeS2,2.049
GeS2,2.2648
GeS2,2.1396
GeS2,2.149
GeS2,2.5974999999999997
GeSb,0.0
GeSb2H16C4(S3N)2,2.4898999999999996
GeSb3,0.0
GeSb4Te7,0.26890000000000036
GeSbTe3,0.0
GeSe,0.015300000000000757
GeSe,0.8988
GeSe2,1.5188000000000001
GeSe2,1.4891999999999999
GeSe2,1.4381000000000002
GeTe,0.15500000000000025
GeTe,0.6986999999999997
GeTe,0.4068000000000005
GeTe,0.0
GeTe,0.8086000000000002
GeTe(PbSe)2,0.5438999999999998
GeTe2Pb,0.2541000000000002
GeTe4Pb3,0.6227
GeTe5Pb4,0.6566000000000001
GeTe7As4,0.4128999999999996
GeTePt,0.2558999999999996
GeTeRh,0.0
GeWO4,1.0688
GeXeF10,2.3433
H(WO3)4,0.5904999999999998
H10C2N2O5,3.4173
H10C3BrN,4.3740000000000006
H10C3IN,4.3218
H10C3N3Cl,4.8385
H10C3S3N,1.7681000000000002
H10C4SN2,3.6330999999999998
H10C4SN2,3.7412
H10C5NO6,3.3653
H10CN2O5,4.1304
H10IrC2(ClO)3,1.9822000000000002
H10PbC6S2IN,3.0963
H10PtC2(NCl)2,2.5658
H10S(NO)4,5.1317
H10S(NO2)2,4.8521
H10S(NO2)2,1.2048
H10SO8,5.508
H10SeO8,3.9706
H11C4Br2N,3.6334999999999997
H11C4NO10,3.4288
H11CSO8F3,5.6433
H11NF8,7.5317
H11O8,1.0035
H11S2N3O7,4.922
H12AuC4N,3.0964
H12C2N14O,2.0299
H12C2S(NO2)2,5.0163
H12C3NF3,7.2752
H12C4IN,4.1779
H12C4N2O9,3.3009000000000004
H12C4N2O9,3.2411
H12C4Se3Br6N,1.1772
H12C5N2O,4.6234
H12C6S(N5O3)2,3.3772
H12Cl2O13,5.2747
H12OsN5Cl3O,2.4019999999999997
H12PbC2(I3N)2,0.2236
H12PbN3Cl5,4.4428
H12Pd(I2N)4,1.2455999999999998
H12PdC2(N3Cl2)2,1.7471999999999999
H12PdC4(NO5)2,2.2167
H12PtC6(N3O4)2,2.2748999999999997
H12PtN6(ClO3)2,2.1975
H12RuSN4(ClO)2,1.9291
H12W3C4NCl9,0.09089999999999998
H12WC2(S2N)2,2.2426
H12WN3(OF)3,3.6572
H13(C5N)2,3.0363
H13C2Cl2O8F,4.8344000000000005
H13C2Cl3O8,4.5239
H13C3NF4,7.284
H13C4NF2,6.5367999999999995
H13ClO6,4.9350000000000005
H13PtC3N3Cl2O,2.3108
H13RuC6SN4O8F9,1.9684999999999997
H13RuN5(ClO)2,2.4194
H13S2N3O8,5.0005999999999995
H13S2N3O8,5.031700000000001
H13S2N3O8,5.124
H13S2N3O8,5.172
H13Se2N3O8,3.4313000000000002
H13Se2N3O8,3.5147
H13Se2N3O8,3.7733999999999996
H14C2N8O5,2.7816
H14C3NCl5,5.3369
H14C3NF5,7.3363
H14C4NF3,7.115600000000001
H14C5(NO)2,4.3708
H14C5(SN)2,2.6468
H14C5BrN3,4.0874
H14C5SN3ClO2,2.8781
H14Pb6C8O13,2.9109999999999996
H14Pb6C8O13,2.9566
H14RhC6NClO4,1.7483999999999997
H14RuS2(N2O3)2,3.0497000000000005
H15IrBr3N5,3.0246
H15PdRuN9O11,1.9013
H15RhBr3N5,2.6607
H16C3NF7,7.3689
H16C3S3(N3O)2,3.5074
H16Cl2O15,5.1053999999999995
H16PdC4(N5O)2,2.9193
H16PdC4S4(N4Cl)2,2.0399
H16PdC4S4(N4Cl)2,2.0412
H16PtC4(NCl3)2,2.2425
H16PtC4(NCl3)2,2.1643
H16RhN5(Cl2O)3,1.6753999999999998
H16Ru3C6(Cl3O7)2,0.20540000000000003
H17RuN6ClO3,1.8939
H18AuN6Cl,3.594
H18RuC6(SCl)3,3.1839000000000004
H18RuN5(ClO)2,1.2644000000000002
H18SO12,5.218999999999999
H18Se3(NO3)4,3.4800000000000004
H19C6N3ClO2,4.468
H19C6N7O4,4.7942
H2,6.2332
H2,7.3865
H2,8.0699
H2,9.328899999999999
H2,8.8499
H2,9.7197
H2,8.1932
H2,8.1865
H2,8.5338
H2,8.8022
H20C3(N2O5)2,4.7128
H20RhC3N9Cl6O,1.4438
H20RuC6NO14,0.6910000000000001
H21C6N2Cl3,5.2189
H22C10O3,5.196
H22IrC3(N3O4)2,2.7618
H22RhC3(N3O4)2,3.2578
H23RuS2N5ClO12,0.02290000000000003
H24C8S(NO2)2,3.8119
H24C8S(NO2)2,3.7835
H24OsC8(NF3)2,0.17430000000000012
H24PdC8(NCl2)2,1.8282
H24Pt(N4Cl)2,3.8648
H24RuC8(S2Cl)2,2.3670999999999998
H26OsC6S6Br3N12O,0.12939999999999996
H27C9S2N3O5,3.7474
H28Pt2Br5N9O2,2.5383000000000004
H28RuS2(N3O5)2,2.3276000000000003
H29Pd3S3N9O10,2.1833
H2C,6.167999999999999
H2C3,1.9102000000000001
H2C3(N2Cl)2,3.4962
H2C3N2O3,2.7327
H2C3NClOF4,4.3321000000000005
H2C4(OF2)3,5.2961
H2CBrCl,4.3521
H2CBrCl,4.740600000000001
H2CBrCl,4.662599999999999
H2CN2,4.709899999999999
H2CN2,4.8561
H2CN5,4.1171999999999995
H2CO2,4.2073
H2CO2,4.8596
H2CO3,5.6848
H2CS3,1.9796999999999998
H2CS3,2.0285
H2O,4.549499999999999
H2O,5.4391
H2O,5.275399999999999
H2O,5.6674
H2O,5.4567
H2O,5.6654
H2O,5.3276
H2O,4.8393
H2O,4.7589
H2O,5.4898
H2O,5.2923
H2O,5.520200000000001
H2O,5.5287
H2O2,4.1497
H2Os3C8(SO4)2,2.6992
H2Pb(CO2)2,3.9997000000000003
H2Pb3O4,2.8391999999999995
H2Pb4C(Cl3O2)2,3.55
H2Pb4SO8,2.8007
H2PbCl2O7,4.4568
H2PbO2,2.5105
H2Pd(PbO2)2,1.2919999999999998
H2Pd(S2O7)2,1.021
H2PtPbI6O19,2.2702000000000004
H2Ru3C8SO8,2.2268
H2Ru6C18SO20,1.1982
H2RuC3(ClO2)2,3.0263
H2S,4.4350000000000005
H2S,4.0901
H2S,4.3246
H2S,3.5201
H2S,4.0299
H2S2O7,3.5825
H2SO4,5.844899999999999
H2SO4,5.5584
H2SO4,5.5958
H2SO4,6.421
H2SO4,6.109999999999999
H2SO5,4.5613
H2SeO3,4.4331000000000005
H2SeO3,4.4855
H2SeO4,3.3830999999999998
H2SeO4,3.3930000000000002
H2W,0.0
H2W2O7,1.631
H2W2O7,1.7048999999999999
H2WO4,1.4761
H2WO5,2.3040000000000003
H2WO5,1.6959000000000002
H30Ru2Pt(NCl)10,0.08999999999999997
H30S2O21,5.2561
H32RuC8N4Cl7,0.15259999999999996
H32WC8N4Cl7,1.6809
H34C19,5.4526
H34C19,5.6797
H36Pb3C10(I5N2)2,1.7045000000000001
H3BrO,4.5929
H3C3N5,3.483
H3C8N2Cl3O2,3.1763000000000003
H3CBr,4.5531
H3CCl,5.572100000000001
H3CI,4.289499999999999
H3CI,3.3729
H3CNO2,3.0427
H3CO2F,5.5308
H3CO3,3.5773
H3CO3,3.4314
H3CO3,3.3732
H3CS,3.7157999999999998
H3CS,3.5897
H3CSO4F3,6.383800000000001
H3CSe,2.5842
H3ClO,5.5013
H3ClO,5.3864
H3ClO5,5.4925999999999995
H3ClO5,5.0433
H3ClO5,4.888
H3ClO5,4.7936000000000005
H3ClO5,5.4045
H3ClO5,4.753299999999999
H3ClO5,3.4848
H3F2,8.0745
H3F2,7.9037999999999995
H3N,4.3412
H3N,4.4529
H3N,3.7337000000000002
H3NCl,5.2202
H3NO4,3.7619
H3NO4,3.3335
H3NO4,3.7239
H3NO4,3.9184
H3O2,3.8301999999999996
H3OF,6.7458
H3Os4C12ClO12,2.3043
H3Os4C12IO12,2.4452
H3PbCI3NF3,1.8542999999999998
H3Pd4,0.0
H3S,4.3472
H3S,3.8443
H3SNO3,5.1885
H3SNO3,5.4035
H3SNO3,5.7448
H3SNO4,5.090400000000001
H3SO4F,5.4991
H3W,0.0
H48PtW6C8(NO)24,2.9777
H4BrN,4.3113
H4BrN,4.0357
H4C,7.6375
H4C2N3Cl,4.0759
H4C2NO2,2.8327999999999998
H4C2O,5.4072
H4C2SN4,3.3520000000000003
H4C5O2,3.3456
H4C6O,2.8404
H4C7,2.2582
H4CN2O,4.2899
H4CN2O,5.0712
H4CN2O,4.7048
H4CN2O,3.5795000000000003
H4CN2O,4.8065999999999995
H4CN4O,2.0661
H4CN4O,2.0407
H4CN5Cl,3.3852
H4CS(NO)2,3.0256
H4CS(NO)2,2.9683
H4CSIN2,2.2301
H4CSIN2,2.2319999999999998
H4CSN2,3.6174999999999997
H4CSN2,4.332
H4CSN2,2.7968
H4CSN2,3.3985000000000003
H4CSN2,3.3742
H4CSN2Cl,3.6188000000000002
H4I3N,1.8563999999999998
H4I3NO9,2.1898999999999997
H4IN,3.7619000000000002
H4IN,3.6458
H4N2O3,4.207
H4NCl,4.9364
H4NF,5.959200000000001
H4NF,6.1796
H4OF2,7.0619
H4Pb(CO3)2,3.0104
H4PbI3N,2.7535
H4PbI3N,2.4421999999999997
H4Pd(NO4)2,1.5880999999999998
H4Pd(NO4)2,1.5519
H4Pd3,0.0
H4Ru3C9N2O9,2.56
H4S(NO)2,5.3453
H4S4N,0.41980000000000006
H4SO5,5.7381
H4SO5,5.2345
H4SO5,5.366499999999999
H4SO5,5.2564
H4SO5,5.6541
H4SO5,5.2943
H4SO5,5.2574
H4SeO5,3.5177
H4W,0.031199999999999672
H4WNCl6,0.0
H5(C2N3)6,0.0524
H5(C2N3)6,0.04269999999999996
H5BrNO,4.5682
H5BrNO,4.3548
H5BrO2,4.3685
H5BrO2,4.1647
H5BrO2,4.4193
H5C2NO,4.9699
H5C2NO3,4.7722
H5C2NO4,3.0878
H5C2S2N3,2.2904000000000004
H5C2S2N3,2.1802
H5C3N5O,3.3608000000000002
H5C56O,0.6288
H5C8NO2,2.7988999999999997
H5CN3,4.4276
H5CN3,4.3095
H5CN6Cl,3.7622
H5CNO2,5.0248
H5CNO3,5.1511
H5CSN2Cl,4.3408
H5CSO5F3,6.1345
H5ClO2,5.2194
H5ClO6,4.3619
H5ClO6,5.4471
H5ClO6,4.7683
H5ClO6,4.5672999999999995
H5ClO6,3.4228
H5IO6,2.2095000000000002
H5IO6,1.266
H5IO6,2.2994
H5IO6,2.3769
H5IO6,2.1088
H5IO6,1.8659
H5IO6,1.6184
H5IO6,2.0918
H5IO6,0.9650000000000001
H5N2F,5.4604
H5NF2,6.9008
H5NO,4.7019
H5NO,4.8125
H5NO,4.5812
H5NO5,4.3491
H5NO5,3.6226000000000003
H5PbC2SN6Cl,3.0812
H5PbCBr3N2,1.7578
H5PbCI3N2,1.4326
H5PbCN2Cl3,2.4370000000000003
H5S2NO7,5.2538
H5SeNO3,4.410900000000001
H5SeNO4,3.4905
H5SeNO4,3.4891
H6AuBrN2,3.7314000000000003
H6C(NO)2,4.9276
H6C(NO)2,4.8731
H6C(SN)2,2.7177
H6C(SN)2,2.5673
H6C2(NO)3,3.9785999999999997
H6C2N4O,4.5286
H6C2SBr2,2.4037
H6C2SN3O2,2.2976
H6C3(NO)2,4.7894000000000005
H6C3N4O3,4.3669
H6C3S(NO)2,4.263999999999999
H6CIN,4.0743
H6CIN,3.9223
H6CN3Cl,5.107
H6CN3ClO,5.2019
H6CN4O,4.9787
H6CNCl,4.9006
H6CNF,5.7453
H6CNF,6.0427
H6CS(NO)3,4.9559999999999995
H6CSBrN3,3.4555
H6CSN2O,3.6624
H6CSN4,3.4076
H6I3NO9,3.2365
HfMg14Ga,0.0
HfMg14Mn,0.0
HfMg14MnO16,0.0
HfMg14Mo,0.0
HfMg14Nb,0.0
HfMg14Ni,0.0
HfMg14NiO16,0.0
HfMg14Sb,0.0
HfMg14Si,0.0
HfMg14Sn,0.0
HfMg14Ti,0.0
HfMg14TiO16,0.0
HfMg14V,0.0
HfMg14VO16,0.0
HfMg14W,0.0
HfMg14Zn,0.0
HfMg14ZnO16,0.0
HfMg14Zr,0.0
HfMg15,0.0
HfMg3,0.0
HfMg30AlO32,0.0
HfMg30BO31,0.5003000000000002
HfMg30BO31,0.8342999999999998
HfMg30BO31,0.8494999999999999
HfMg30BO31,0.0
HfMg30BO32,0.0
HfMg30BO32,0.011200000000000543
HfMg30BiO32,0.0
HfMg30CO32,0.0
HfMg30CO32,0.7456000000000005
HfMg30CdO32,0.5589999999999993
HfMg30CdO32,0.46830000000000105
HfMg30CoO32,0.0064000000000010715
HfMg30CoO32,0.01789999999999914
HfMg30CrO32,0.02069999999999972
HfMg30CrO32,0.0
HfMg30CuO32,0.026099999999999568
HfMg30CuO32,0.012399999999999523
HfMg30FeO32,0.0
HfMg30GaO32,0.0
HfMg30MnO32,0.0
HfMg30NbO32,0.0
HfMg30NiO32,0.013600000000000279
HfMg30NiO32,0.023600000000000065
HfMg30SbO32,0.0
HfMg30SiO32,0.0
HfMg30SnO32,0.0
HfMg30TiO32,0.0
HfMg30VO32,0.0
HfMg30WO32,0.0
HfMg30ZnO32,0.6385000000000005
HfMg30ZnO32,0.5609999999999999
HfMg6Al,0.0
HfMg6Bi,0.0
HfMg6Cd,0.0
HfMg6Cu,0.0
HfMg6Ga,0.0
HfMg6Nb,0.0
HfMg6Sb,0.0
HfMg6Sn,0.0
HfMg6Ti,0.0
HfMg6Zn,0.0
HfMg6Zr,0.0
HfMg7,0.0
HfMgAu2,0.0
HfMgIr2,0.0
HfMgN2,1.6720000000000006
HfMgPd2,0.0
HfMgPt2,0.0
HfMgRh2,0.0
HfMn,0.0
HfMn2,0.0
HfMnAl,0.0
HfMnF6,4.9479
HfMnGa2,0.0
HfMnGe,0.0
HfMnGe2,0.0
HfMnIr2,0.0
HfMnN2,0.0
HfMnO3,2.6129000000000002
HfMnP,0.0
HfMnRh2,0.0
HfMnSi,0.0
HfMnSi2,0.0
HfMo,0.0
HfMo2,0.0
HfMo2Se8(Cl7O)2,0.875
HfMo4,0.0
HfMoC2,0.0
HfMoP,0.0
HfN,0.0
HfNCl,2.2055000000000002
HfNb,0.0
HfNb(PO4)3,2.9334999999999996
HfNb2VC4,0.0
HfNb4CN4,0.0
HfNbB2,0.0
HfNbB4,0.0
HfNbC2,0.0
HfNbCN,0.0
HfNbN2,0.0
HfNbO4,0.0
HfNbP,0.0
HfNbRu2,0.0
HfNbTc2,0.0
HfNi,0.0
HfNi2,0.0
HfNi2Sb,0.0
HfNi2Sn,0.0
HfNi3,0.0
HfNi5,0.0
HfNi5(BO5)2,3.1031000000000004
HfNiAs,0.0
HfNiGe,0.0
HfNiO3,2.7983000000000002
HfNiP,0.0
HfNiSb,0.0
HfNiSn,0.3868999999999998
HfO2,4.667800000000001
HfO2,3.7545
HfO2,4.2272
HfO2,4.0165
HfO2,3.8043000000000005
HfO2,4.4148
HfO2,3.3929
HfO2,4.016500000000001
HfO2,4.1383
HfO2,3.9024999999999994
HfOs,0.0
HfOs2,0.0
HfP,0.0
HfP2,0.0
HfP2(H3O5)2,5.2369
HfP2H4O9,5.2325
HfP2O7,5.3149
HfP2O7,5.2102
HfP2O7,5.2942
HfPOs,0.0
HfPRu,0.0
HfPaTc2,0.0
HfPbN2,0.9043000000000001
HfPbO3,2.4148999999999994
HfPbO3,2.7161
HfPbO3,3.1989
HfPbO3,2.7562000000000006
HfPbS3,1.4517000000000002
HfPd,0.0
HfPd2,0.0
HfPd3,0.0
HfPd5,0.0
HfPt,0.0
HfPt3,0.0
HfPt4,0.0
HfRe2,0.0
HfReSi,0.0
HfReSi2,0.0
HfRh,0.0
HfRh3,0.0
HfRu,0.0
HfRu3,0.0
HfS,0.0
HfS2,1.2237
HfS3,1.1326
HfSCl6O,3.2117
HfSO,1.0651000000000002
HfSO,2.8690999999999995
HfSO6,2.8728
HfSb,0.0
HfSb2,0.0
HfSb4Mo,0.1391000000000009
HfSbPd,0.0
HfSbRu,0.0
HfSc,0.0
HfSc3Si8,0.0
HfScCo2,0.0
HfScGe4,0.0
HfScIr2,0.0
HfScOs2,0.0
HfScP(SO6)2,4.516299999999999
HfScRh2,0.0
HfScRu2,0.0
HfScSi2,0.0
HfScTc2,0.0
HfSe2,0.5342000000000002
HfSe3,0.31709999999999994
HfSeS,0.7587000000000002
HfSi,0.0
HfSi2,0.0
HfSiGe(SO6)2,2.0599999999999996
HfSiMo,0.0
HfSiNi,0.0
HfSiO4,5.069999999999999
HfSiOs,0.0
HfSiPd,0.0
HfSiPt,0.0
HfSiRh,0.0
HfSiRu,0.0
HfSiRu2,0.16949999999999932
HfSiS,0.0
HfSiSe,0.0
HfSiSn(SO6)2,2.2986999999999997
HfSiTe,0.0
HfSiW,0.0
HfSn,0.0
HfSn2,0.0
HfSnIr,0.0
HfSnO3,2.3676000000000004
HfSnP2SO12,2.737
HfSnPd,0.033800000000000274
HfSnRh,0.0
HfSnRh2,0.0
HfSnRu2,0.0
HfSnS3,1.1981000000000002
HfTa,0.0
HfTa(PO4)3,3.7686
HfTa2VC4,0.0
HfTa5B4,0.24979999999999958
HfTaB2,0.0
HfTaB4,0.0
HfTaC2,0.0
HfTaCN,0.0
HfTaFe4,0.0
HfTaN2,0.0
HfTaNO3,1.8989000000000003
HfTaNO3,2.8895
HfTaRe2,0.0
HfTaRu2,0.0
HfTaTc2,0.0
HfTaV4,0.0
HfTc,0.0
HfTc2,0.0
HfTc2Mo,0.0
HfTc2Sb,0.0
HfTc2Sn,0.0
HfTc2W,0.0
HfTe2,0.0
HfTe3,0.0
HfTe3O8,3.8425999999999996
HfTe3Se8,0.492
HfTe5,0.0
HfTe7SeCl6,1.0147
HfTeS,0.0
HfTeSe,0.0
HfTeSe4,0.9563000000000001
HfThTc2,0.0
HfTi,0.0
HfTi(PbO3)2,2.2028
HfTi(SnO3)2,1.8075
HfTi3,0.0
HfTi4(PbO3)5,2.077699999999999
HfTi4(PbO3)5,2.0772999999999993
HfTiB4,0.0
HfTiC2,0.0
HfTiCN,0.0
HfTiF6,0.0
HfTiFe4,0.0
HfTiMo4,0.0
HfTiN2,0.0
HfTiO4,2.5991000000000004
HfTiO4,2.8259
HfTiP2SO12,2.6311
HfTiRu2,0.0
HfTiSe4,0.0
HfTiSi(SO6)2,2.3917
HfTiW4,0.0
HfTiZn2,0.0
HfTl,0.0
HfTl2Fe2(MoO4)6,2.6073
HfTl2PbSe4,0.6334000000000009
HfTl2Se3,0.6963000000000004
HfTl8(MoO4)6,3.1835000000000004
HfTlCdF7,4.9416
HfTlCuS3,0.7967000000000004
HfTlCuSe3,0.41999999999999993
HfTlF5,4.7684
HfU(NbC2)2,0.0
HfU(TaC2)2,0.0
HfU3Sb5,0.0
HfUC2,0.0
HfUN2,0.0
HfV2,0.0
HfV2N3,0.0
HfV2O7,2.6491
HfVF6,3.2213000000000003
HfVGe,0.0
HfVP,0.0
HfVSi,0.0
HfW2,0.0
HfWC2,0.0
HfZn,0.0
HfZn(SO4)3,4.7736
HfZn16,0.0
HfZn2,0.0
HfZn22,0.0
HfZn2Ga,0.0
HfZn3,0.0
HfZnAu2,0.0
HfZnCo2,0.0
HfZnCu2,0.0
HfZnIr2,0.0
HfZnN2,2.3179
HfZnNi2,0.0
HfZnPd2,0.0
HfZnPt2,0.0
HfZnRh2,0.0
HfZr,0.0
HfZr2UC4,0.0
HfZr3,0.0
HfZrB4,0.0
HfZrC2,0.0
HfZrCN,0.0
HfZrCo2,0.0
HfZrFe2,0.0
HfZrFe4,0.0
HfZrMo4,0.0
HfZrN2,0.0
HfZrNb2,0.0
HfZrO4,3.2854
HfZrO4,3.5612
HfZrO4,3.4356
HfZrO4,3.8548
HfZrO4,3.5993999999999997
HfZrOs2,0.0
HfZrP2SO12,4.3196
HfZrRu2,0.0
HfZrS6,1.0865999999999998
HfZrSi(SO6)2,3.9413
HfZrTc2,0.0
HfZrV4,0.0
HfZrW4,0.0
HfZrZn2,0.0
Hg,0.0
Hg,1.0394
Hg,0.23969999999999997
Hg,0.5904
Hg,0.2567
Hg,0.7609000000000001
Hg,0.7993000000000001
Hg,0.4712
Hg,0.40900000000000003
Hg,0.09670000000000001
Hg,0.3447
Hg,0.5060999999999999
Hg,0.13019999999999993
Hg(AsO3)2,0.7083000000000004
Hg(AuF4)2,1.5737999999999999
Hg(BiO3)2,0.0
Hg(BiS2)2,1.1861000000000002
Hg(Br3N2)2,0.0
Hg(IO3)2,2.4467
Hg(Mo3Cl7)2,1.7414999999999998
Hg(Mo3S4)2,0.0
Hg(PO3)2,2.5782000000000003
Hg(SbO3)2,0.5173000000000001
Hg(SbO3)2,0.0
Hg(SbS2)4,1.0267
Hg(TeO3)2,1.9151999999999998
Hg11I2BrClO4,1.3079
Hg12SbBr(ClO3)2,0.0
Hg12Se6O25,0.0
Hg15(As2Cl3)4,1.3083
Hg15(As2Cl3)4,1.2755999999999998
Hg19(As5Br9)2,1.0826
Hg2As3Br,0.899
Hg2As5H6O2F31,2.8459000000000003
Hg2AsCl2,1.3074000000000001
Hg2AsF6,0.7378999999999999
Hg2AsF6,0.0
Hg2BOF4,0.0
Hg2ClO,2.0221999999999998
Hg2ClO,1.5862
Hg2ClO,2.0573
Hg2ClO6,0.2339
Hg2GeO4,1.0221999999999998
Hg2GeO4,0.9468999999999999
Hg2GeS6Cl2O21,2.1278
Hg2GeSe4,0.4336
Hg2H10C3NCl5,2.8392999999999997
Hg2H12C4I5N,1.8462
Hg2H6CN3Cl5,2.442
Hg2H8C2NCl5,2.7957
Hg2I3Br,2.2149
Hg2IBr3,2.2789
Hg2IO,0.9192
Hg2Mo2O7,1.9279
Hg2Mo2O7,2.1988999999999996
Hg2Mo2O7,2.2785
Hg2Mo5O16,2.1428
Hg2MoO4,2.0451
Hg2MoO4,1.5605
Hg2NO4,1.5703
Hg2Os2O7,0.0
Hg2P2H4O9,1.8809
Hg2P2O7,1.4991999999999999
Hg2P2O7,1.4841999999999997
Hg2P2S7,1.8095
Hg2P3Br,0.9380999999999999
Hg2P3Cl,1.1347
Hg2PCl2,1.4683
Hg2PO3F,1.452
Hg2PO4,0.0
Hg2Pb(SBr)2,2.202
Hg2Pb(SI)2,1.6317
Hg2Pt,0.0
Hg2Pt2O7,0.0
Hg2Rh,0.0
Hg2SO4,1.9921000000000002
Hg2Sb2O7,0.0
Hg2Sb7H2Xe3F59,1.7275
Hg2SbF6,0.0
Hg2SeO3,2.1898
Hg2SeO3,2.3109
Hg2SeO3,2.3289999999999997
Hg2SeO4,1.4363000000000001
Hg2SeO5,0.7264
Hg2SeS,0.0
Hg2Te2O7,1.5682000000000005
Hg2Te2O7,1.4253000000000005
Hg2Te4Kr3(O2F13)2,2.397
Hg2Te4Xe3(O2F13)2,2.5668
Hg2TeBr3,1.8821
Hg2TeO3,2.2142
Hg2TeO5,0.5348000000000002
Hg2TeS,0.0
Hg2TeSe,0.0
Hg2W2O7,1.8807999999999998
Hg2W2O7,2.2155
Hg2W2O7,2.0519
Hg2W2O7,1.8807
Hg2WO4,1.6656000000000002
Hg3(AsO4)2,0.9868999999999999
Hg3(BO3)2,2.629
Hg3(ClO)2,0.3047
Hg3(ClO)2,0.6363
Hg3(ClO5)2,0.0
Hg3(NO4)2,0.8579000000000001
Hg3(PO4)2,1.4042999999999999
Hg3(PS4)2,1.6085999999999998
Hg3(SBr)2,1.487
Hg3(SBr)2,1.609
Hg3(SCl)2,1.7932
Hg3(SCl)2,0.5971
Hg3(SCl)2,1.9398
Hg3(SF)2,1.8372000000000002
Hg3(SI)2,1.3129
Hg3(SeBr)2,1.3272
Hg3(SeCl)2,1.7701
Hg3(SeF)2,1.9752
Hg3(SeI)2,1.1701000000000001
Hg3(SeI)2,1.1291000000000002
Hg3(SeO3)4,0.1857
Hg3(TeBr)2,1.7040000000000002
Hg3(TeCl)2,1.9134000000000002
Hg3(TeI)2,1.3859000000000001
Hg3As2(HO4)2,2.4844
Hg3As2F12,2.6234
Hg3As8(S4Br3)2,2.0132
Hg3AsBrO4,1.8436000000000001
Hg3AsClO4,2.0411
Hg3AsO4,0.5021
Hg3AsO4,1.7517
Hg3AsO5,1.3663
Hg3AsS4Br,1.5311
Hg3AsS4Cl,1.5137999999999998
Hg3AsSe4Br,1.3029000000000002
Hg3AsSe4I,1.2214
Hg3Au,0.0
Hg3BI2(OF2)2,0.2261
Hg3Bi,0.0
Hg3Bi2(SCl4)2,2.7814
Hg3Bi2(TeCl4)2,3.0056000000000003
Hg3Cl,0.0
Hg3Cl4O,1.4621
Hg3ClO,1.0025
Hg3F,0.0
Hg3H4(IO6)2,1.1442999999999999
Hg3H4(IO6)2,0.8314999999999999
Hg3H4S2O11,1.7372999999999998
Hg3H6Pt(NCl4)2,2.0411
Hg3HN2O7,2.3350999999999997
Hg3NO5,0.0
Hg3PClO4,2.3788
Hg3PO4,0.7357
Hg3PO4,2.105
Hg3Pb,0.0
Hg3Pd,0.0
Hg3Pd8Se9,0.0
Hg3S2BrCl,1.639
Hg3S2ICl,1.3146
Hg3SO6,0.5752
Hg3SO6,0.5891
Hg3Sb,0.0
Hg3Sb3H6C2Se8N,0.000400000000000178
Hg3SbAsS3,1.6107999999999998
Hg3Se3O10,1.8688999999999998
Hg3Se4O5,1.8293
Hg3SeO6,0.4373
Hg3Te2IBr,1.2572
Hg3Te2SeO10,2.0991999999999997
Hg3TeBr4,1.9445000000000001
Hg3TeCl4,2.2498
Hg3TeO6,1.1609
Hg3TeO6,0.6009
Hg4As2Br3,0.7238
Hg4As2I3,0.6598999999999999
Hg4As2O7,1.1260999999999999
Hg4AsI5,0.9168
Hg4BiS2Cl5,2.3713
Hg4BiSe2Cl5,2.105
Hg4GeS6,0.8412999999999999
Hg4HN3O10,2.0558
Hg4I7,0.0
Hg4N3O10,0.0
Hg4OF6,0.2036
Hg4P2O7,1.5884999999999998
Hg4Pb2N6O19,1.8181
Hg4Pt,0.0
Hg4S(ICl2)2,0.8916
Hg4Sb2I3,0.7163999999999997
Hg4Se4O9,2.2944
Hg5(BrO2)2,0.0
Hg5(ClO)4,0.0
Hg5(ClO2)2,0.18619999999999998
Hg5(SbI3)2,1.4109
Hg5(SeO4)2,1.4889000000000001
Hg5Au6,0.0
Hg5N3O11,0.0
Hg5Pd2,0.0
Hg6BiAs4Cl7,1.2948000000000002
Hg6BiSb4Br7,1.025
Hg6Cl3O2,0.0
Hg6MoAs4Cl7,0.11109999999999998
Hg6P4PbCl6,2.1079
Hg6S4Br3Cl,1.5348000000000002
Hg6S4IBr2Cl,1.4271
Hg6S4IBr3,0.0
Hg6Sb5Br7,0.9446000000000001
Hg7(P2Br3)2,1.3616000000000001
Hg7(PO5)2,1.4295
Hg7(Sb2Br3)2,0.0
Hg7Cl2O3,0.9253
Hg8Bi3As4Cl13,1.4999
Hg8Br3O4,0.6139
Hg8Br3O4,0.2024
Hg9(AsO4)4,1.7612999999999999
Hg9(PO4)4,1.8736000000000002
Hg9Bi2(AsBr3)4,1.1979000000000002
Hg9P5I6,1.2807000000000002
HgAs2H2F14,3.3205999999999998
HgAs2HF13,3.0664
HgAs2Xe5F22,2.1803
HgAs3H12C4S6N,2.1934
HgAs4(S2I)2,1.9184
HgAsF7,2.5173