formula,band_gap
Li2EuSiO4,0.0433000000000003
LiCu2P3O10,0.0433999999999996
LiMnRhO4,0.0434999999999998
Fe25Si11O48,0.0435999999999996
BaSr3(CoO3)4,0.0437000000000002
BaCa(CoO2)4,0.0438
Sm4MgPd,0.0438999999999998
Li6V3Cu(PO4)6,0.0439000000000002
CaTl2O4,0.0439000000000007
Pb10S(ClO3)4,0.044
Tb2MnS4,0.0441000000000002
FeH4Br3N,0.0442
Np(SO6)2,0.0442
SrNdNiRuO6,0.0442999999999997
Li3MnCu3O8,0.0443999999999999
K2InCuCl6,0.0444999999999999
Mg2B(PO5)2,0.0444999999999999
La7Ru3,0.0445999999999999
ScTlTe2,0.0445999999999999
TiV3Sn2(PO4)6,0.0445999999999999
K7Fe5O16,0.0446999999999999
CuAgGeSe3,0.0447000000000001
BaCo2Si2O7,0.0447999999999999
Cs2PdI6,0.0448999999999999
Li5V2Co3O10,0.0449000000000001
Ba20Y10Cu(Ru3O20)3,0.0449999999999999
Cd2GeAs4,0.0449999999999999
Ca9Nb2Ga10(SiO7)6,0.0449999999999999
La3Co2CuO9,0.0449999999999999
Cs3FeSe3,0.0450000000000001
Li5Mn(SiO3)4,0.0451000000000001
InGaS3,0.0451999999999999
In4Se3N2,0.0452999999999996
MgMn5Cr2O12,0.0453000000000001
YFe(WO4)2,0.0453000000000001
Na18Mg20Nb4Si3(S11O48)3,0.0453999999999998
SrEuNbBiO6,0.0453999999999998
Sr2HgGe,0.0453999999999998
Ca3(TaN2)2,0.0453999999999998
Ce2H8S3O16,0.0454000000000003
Li5Co5(NiO6)2,0.0455999999999998
Ba5Fe4S11,0.0457
Ba2(InAs)5,0.0457
MnNb(PO4)2,0.0458000000000002
CaCd3O4,0.0459
Tb8Cu3Te16,0.0461
La2Mn2O5,0.0461
Nb2Pb3O8,0.0461999999999998
Te4Mo2WSe2,0.0462000000000002
Y4MgPd,0.0463
Zn4CoSe5,0.0464
MgS8(O5F2)4,0.0464
Fe7(PO4)6,0.0464000000000002
VZnP2PbO9,0.0464999999999999
Li5Mn2Co2(PO4)4,0.0464999999999999
Ce3AlCdS7,0.0466999999999995
CuClO,0.0466999999999999
V5CoO12,0.0467000000000001
Ca4Ti5(TeO6)3,0.0468000000000001
V7(PO4)6,0.0468999999999999
Al4(BiSe4)3,0.0468999999999999
KEuV4O12,0.0469000000000001
Na3Fe2P(CO4)4,0.0471
InAs2PbO8,0.0471000000000003
Mn3VNi2(PO4)6,0.0473999999999998
AlReSi,0.0474999999999994
Ba2Sr6Co3(CuO4)5,0.0476999999999998
NaCuSe,0.0476999999999998
La15(NiO4)8,0.0476999999999998
Li2MnNb3O8,0.0478
RbCeSe2,0.0478
Li2YIn,0.0478999999999998
NaTi8Cu6BiO24,0.0479000000000002
Ba2EuMoO6,0.0479000000000002
Ga2Cu3(SeO3)6,0.0481000000000002
Li3Zr4(PO4)6,0.0481999999999995
PrAs2,0.0482000000000004
Sn2GeTe3,0.0482999999999993
RbVSe2,0.0483
LiIn(MoSe)6,0.0484
Na5Li4Ti5O14,0.0484
Fe2CuRh3S8,0.0484999999999997
Na8Al11Si13(AgO16)3,0.0486
SbSe5F6,0.0487
TiFe2Sn,0.0487000000000001
MgFe2(SbO4)2,0.0487999999999999
Na5LiCo2P2(CO7)2,0.0490000000000003
Na4Co12P8H4O37,0.0491000000000001
K49Tl108,0.0491000000000001
DySbPt,0.0492999999999996
SrLa7ZnCu3O16,0.0492999999999996
UP3O11,0.0494
HgTeO3F,0.0494000000000001
Ti3CrNi2(PO4)6,0.0494999999999992
NaCu2(SeO5)2,0.0494999999999999
Pr12Co6Pb,0.0496000000000003
Na5MnHO4,0.0499
SrBi3Cl3O4,0.0502000000000002
Sr5Cd2Sb5F,0.0502000000000002
ZnHg4Te5,0.0503
Na5Cu3(AsO4)4,0.0503999999999997
CuTePb3CO10,0.0504999999999999
Mg14FeSnO16,0.050600000000001
Ti2Cu9(B3O11)2,0.0508000000000001
TlCu7Se4,0.0508000000000006
Cs2YInI6,0.0508999999999999
CuH6(NCl)2,0.0509999999999999
Ba2Si3Ag,0.0510999999999994
Ti2MnAl,0.0510999999999999
RbIn(TeMo)6,0.0510999999999999
NaGeAu3,0.0512000000000001
Ti13Si31Ni40,0.0512000000000014
Rb2LaNb2O8,0.0513000000000003
Te3MoCl16,0.0514
Li22(Cu3Si2)7,0.0514000000000001
Na15Os7N19,0.0514000000000001
Li4V3Co2Sb3O16,0.0514999999999998
ZnCu2Ge(SeS)2,0.0514999999999998
Li6Ti3Fe(PO4)6,0.0514999999999998
Li4Fe3CuO8,0.0516999999999998
Fe2Co(PO4)3,0.0518999999999998
Li4Cu5(P3O11)2,0.0522
LiAs4(PO4)4,0.0523999999999995
Nd(ZnP)3,0.0524
Li4Cr2Ni3Sb3O16,0.0525000000000002
Ti3VCu2(PO4)6,0.0525000000000002
LiEuAsS3,0.0525000000000002
Li9Cr19O48,0.0525999999999999
Na5TlSn3,0.0525999999999999
Mg2CrWO6,0.0526999999999997
Pb13(N2O13)2,0.0527000000000001
YZnCuP2,0.0527999999999995
CoMoH2SeO7,0.0527999999999999
V2Cu3O8,0.0527999999999999
Tm(AlC)3,0.0528000000000004
Sr3La(CoO4)2,0.0528999999999997
Cs2Pr10Co2I17,0.0529999999999999
ZnNiF5,0.0531
SrTiF5,0.0531999999999999
CeTa7O19,0.0534999999999996
Dy3Mg2WS8,0.0535000000000005
La3Te4Br,0.0537
La3MnFeS7,0.0537
Ce2Mo4O15,0.0537999999999998
Cs2(WO4)3,0.0537999999999999
Mg149Ir,0.0538000000000002
KIn(TeMo)6,0.0540000000000002
LaAsS,0.0540000000000002
Li3Fe4(Si3O10)2,0.0540999999999999
Eu(BiSe2)2,0.0541
MgTi2(PS3)4,0.0541
AlSeCl7,0.0541
Li3Mn5Cr2O12,0.0541
KEuPSe4,0.0546000000000002
Pu2IO10,0.0546999999999999
CuP(HO)5,0.0547999999999999
ThCrSe3,0.0549999999999997
Li4Ti3V2Cu3O16,0.0549999999999997
Li(MoSe)3,0.0549999999999997
Ba2YOsO6,0.0550999999999999
Li(PrGe)4,0.0551000000000003
Ca6Al3(Si4N9)2,0.0551000000000003
Ti(AlCl4)2,0.0551999999999996
Mg149Fe,0.0552999999999999
MgScGa,0.0554000000000001
NaO8,0.0554000000000001
AgPtO2,0.0554999999999998
Tb4CdPt,0.0556
Li(NdGe)4,0.0556999999999998
Sb3(BrF8)2,0.0559
Ca2Sn,0.0559000000000002
Mg3Ti2(Si2O7)2,0.056
Fe3Co2Te(PO4)6,0.056
Ge2Bi2Te5,0.0561999999999995
DyMnCrO5,0.0563000000000002
Pr4CdPd,0.0564
VCu13Sn(AsS8)2,0.0564
Ca3SiO,0.0565999999999995
EuTlPS4,0.0566000000000004
MgCo2(PO5)2,0.0568999999999997
Eu2SiO4,0.0568999999999997
MnCSO7,0.0569
NaCu(IO3)3,0.0569999999999999
BaCeEuWO6,0.0570000000000003
PrMnO3,0.0570000000000003
MgMn5NiO12,0.0571000000000001
V5(P3O11)2,0.0571999999999999
LiMn3(FeO4)2,0.0573999999999998
NaV24O58,0.0574000000000001
MgV(GeO3)2,0.0575000000000001
K3Na5V3(MoO4)5,0.0575000000000001
Sr4Fe6O13,0.0577999999999998
Re3Br10N,0.058
Ba2AgBi,0.0581
Cd2TeS,0.0581999999999998
CuP2H12N2(O4F)2,0.0582
Mn5P6WO24,0.0583
Ca3Fe3(SbO6)2,0.0583
LiP(WO4)2,0.0583
Li3Ce4B12(H12Cl)4,0.0584999999999999
Y3ScN4,0.0585000000000004
GdTlTe2,0.0586000000000002
Sm3CrSe6,0.0587000000000004
Ca7CoN6,0.0588000000000006
HoCrO4,0.0588999999999999
Sm3Re2O9,0.0589000000000003
RbU(SeO4)2,0.059
Th2FeSe5,0.0591000000000008
CaU3Ti8O24,0.0593000000000003
Fe2Sn(PO4)3,0.0594000000000001
K2CdSn,0.0594999999999998
Li6CoNi5O12,0.0594999999999998
Ba3U2(PO5)4,0.0597
KMnCu3Se4,0.0597999999999996
Ba2CdGe10,0.0598999999999998
La24Ni16O55,0.0599999999999996
PuAsO4,0.0599999999999996
CuH6CI3N,0.0604
Tb4CdNi,0.0604
SmBi3(Ru2O7)2,0.0605000000000002
Li4TiCr5O12,0.0605999999999999
Ba10Ru3W(Cl2O9)2,0.0605999999999999
Cd(InSe2)2,0.0606999999999997
Ca18Eu2P12(SO16)3,0.0608000000000004
Ba20Zn5Hg99,0.0608000000000004
PrBi3(Ru2O7)2,0.0608999999999992
CeAsO3,0.0609000000000001
Ba4Eu4Zn3PtO15,0.0611999999999999
Rb2V6CdCu9O26,0.0612000000000003
Li2Mn5(CuO6)2,0.0613000000000001
Li4Ti3V3(SbO8)2,0.0615000000000005
SrCeScO4,0.0615999999999994
Tl3Cu4As8Pb3S20,0.0615999999999998
Al3PH29(SO14)2,0.0616999999999999
NdTi3Fe(CuO4)3,0.0617
Na2Mn3(PO4)3,0.0619
LiCoCuF6,0.062
Al11(PO4)12,0.062
EuDyCuS3,0.0621
AlAgO3,0.0622
YAsSe,0.0623000000000004
Mg14CrNiO16,0.0625999999999997
CoCl2,0.0627999999999997
LiSmSe2,0.0627999999999997
K3Cu11Te16,0.0630999999999994
BaEuSnWO6,0.0630999999999994
Li6Ti3Cr(PO4)6,0.0631999999999992
CaCrCu3Se4,0.0632000000000001
V3CoNi2(PO4)6,0.0632999999999999
CaEuYNbO6,0.0633999999999996
LiNbF5,0.0633999999999999
La12Mn3(AlSe7)4,0.0634999999999994
Mg3Ti4(PO4)6,0.0635000000000003
Li5Ti3Mn2(PO4)6,0.0635000000000003
Na3UF7,0.0636000000000001
Li2MnSi4O11,0.0636999999999998
CsBe4Al4(B3O7)4,0.064
Al3Si3Pb2O13,0.0640999999999998
WCl3,0.0641
Ba5GaRu2O11,0.0642
KMnN2,0.0642
MgTe3WO12,0.0644
Ba2TmRuO6,0.0645000000000002
CoCuO2,0.0645000000000006
CoBi2SO7,0.0645000000000006
MgCo5SnO12,0.0645999999999999
Tm6ReO12,0.0645999999999999
Np3SeO13,0.0647999999999999
La3GaFeS7,0.0647999999999999
Li6Nb3P8O29,0.0648999999999997
Sr6Zn(RuO6)2,0.0649999999999999
BaSmEuSbO6,0.0652999999999996
Sm4U2O11,0.0653999999999994
Li35(FeO4)8,0.0653999999999999
Nb2Zn2CuO8,0.0654999999999996
NaNi2(MoO5)2,0.0654999999999998
PrZnAgAs2,0.0655999999999998
Cs2KMn(CN)6,0.0657
TbEu2NbO6,0.0659
BaGaGeH,0.0661
Sr7PtN6,0.0661999999999998
Li5Ni3(SnO5)2,0.0662000000000002
PmTlTe2,0.0662000000000002
Na2Cu2TeO6,0.0663999999999997
ZnCr(SiO3)2,0.0665000000000004
TiCr(PO4)2,0.0665000000000004
Mg30MnBiO32,0.0665999999999993
Na3TiCl6,0.0665999999999997
KV3CdCu4O13,0.0665999999999999
LiFeBO4,0.0666999999999999
LiCrPHO5,0.0667999999999997
KCa2Cd2Sb3,0.0670999999999999
Al12ZnS19,0.0672999999999994
Mn3Cr(PO4)6,0.0672999999999999
NaV(SiO3)2,0.0673000000000003
CeEu2ZrO6,0.0676999999999994
KNa7V7MoO20,0.0676999999999998
Cu5SeCl5O4,0.0676999999999998
Cd4HgSe5,0.0676999999999999
In2CuAg(TeSe)2,0.0678999999999998
Mn(AgO2)2,0.068
Sr(RhO2)4,0.0680999999999993
BiI5,0.0681999999999998
Li2Mn4O3F8,0.0681999999999999
Ba3Mn4PtO12,0.0682
LiTi2P3O11,0.0682
Ta12Ga3(TeSe2)8,0.0682999999999998
NiSb6Ru,0.0682999999999998
Na2B5H5O12,0.0684
Dy13Zn58,0.0687999999999999
Ba2Mn2AlF11,0.0687999999999999
Na3InBi2,0.0688999999999997
SrPrVO4,0.0689000000000001
RbNiN,0.0689999999999999
Rb3LiErV2O8,0.0690999999999997
Li5CoOF5,0.0690999999999997
Mn3Co3(CuO8)2,0.0690999999999999
Li2CuCO4,0.0691999999999999
Na(SiO2)6,0.0691999999999999
Ca3Ti2(SiO4)3,0.0693000000000001
Ti3VFe2(PO4)6,0.0694000000000003
Na4Bi2P(CO4)4,0.0695
K2Pt(I2O)2,0.0695999999999998
RbHoS2O9,0.0696000000000001
Na2Li3Ti3Al(PO4)6,0.0697999999999998
MgTlCu2(SeO5)2,0.0697999999999998
Rb5Tl3O,0.0701999999999998
ThMg149,0.0701999999999998
Li7Mn3(WO8)2,0.0704
Lu5SbPt2,0.0711000000000003
TiVZn(PO4)3,0.0714000000000001
NaGa11O18,0.0714000000000001
SrEuTe2,0.0715000000000003
W15I47,0.0716000000000001
InGa4Sb5,0.0716999999999998
Tb3GaFeS7,0.0718999999999994
Eu2FeH6,0.0720999999999998
U2B9O22,0.0722999999999999
Na2(NiO2)5,0.0724
MgV2(CrS4)2,0.0724999999999997
MgTiP2O7,0.0725999999999995
MnVO4,0.0726
MgZn2(BiO3)4,0.0726999999999997
MnAsO4,0.0726999999999999
Li4MnCr5O12,0.0727999999999999
Na6Mg16Nb8Si3(S11O48)3,0.0730999999999999
UGeI6,0.0731000000000001
Li3CaMnN3,0.0731999999999999
KMnSn3O8,0.0731999999999999
MgCo4(PO3)12,0.0731999999999999
CsSO4,0.0732999999999999
NaNiCSO7,0.0733
EuCuSF,0.0733000000000005
Mn(PtO2)3,0.0733999999999994
MgZnH20PtC4(NO3)4,0.0733999999999999
SrCr2BiO6,0.0733999999999999
Sm2Ti12(CuO4)9,0.0735000000000001
Re2Te4Cl22O,0.0735000000000001
Ce4Si4N6O5,0.0737999999999994
Li3Fe4P3H12O19,0.0737999999999998
Rb3LiTbV2O8,0.0739
U(BH4)4,0.074
Ca2Mn2Si4H6O17,0.0742
Li4Mn3Cr2Sb3O16,0.0742000000000002
Ti3V2P6WO24,0.0743
Li5Ti2Ni5O12,0.0743999999999998
Na2SiBiBO7,0.0745
VCuBi2O7,0.0745
Ca2CoRhO6,0.0745999999999997
MnZn2SiO6,0.0746
TlFeI3,0.0746000000000002
Ti4S3N2,0.0747999999999997
Lu2Ti12(CuO4)9,0.0748999999999995
HoZn(CoO3)2,0.0748999999999999
K2NaTlI6,0.0748999999999999
Cu2Te2Cl2O5,0.0748999999999999
Fe3Ni2Te(PO4)6,0.0749999999999997
MgNb2V2O8,0.0750000000000001
SrCa7Ti3Mn5O21,0.0750000000000001
ReTeS,0.0750999999999999
Rb8Ta6O23,0.0750999999999999
TbAsSe,0.0750999999999999
Ti3Fe2P6WO24,0.0751999999999997
Rb2(TeO4)3,0.0752999999999999
Mg14CuBiO16,0.0753000000000003
Mg2Nb2AgO8,0.0753999999999999
Th(P3Ru)4,0.0754000000000001
K2PuCl5,0.0755000000000003
Os(SeBr6)2,0.0756999999999999
Y2Ti12(CuO4)9,0.0757000000000003
YZr4O9,0.0757000000000003
Tm2Ti12(CuO4)9,0.0757000000000003
K2Na4Co2O5,0.0758
KIn(MoSe)6,0.0758999999999998
AsO2,0.0759999999999999
CsNpAgS3,0.0762999999999998
Ho2Ti12(CuO4)9,0.0765000000000002
Rb4Li(Se2O7)2,0.0766
Li3Fe(CuO3)2,0.0767999999999999
Ni5Ge(BO5)2,0.0769000000000001
NdEu2NbO6,0.0770999999999997
K5NaCe2(SO4)6,0.0771999999999999
Ti2V(PO4)3,0.0772000000000003
Li4Ti3Mn3Cr2O16,0.0773000000000001
Ti3Fe2Sn(PO4)6,0.0774999999999996
Mg149Os,0.0775000000000001
Na4Bi2B4SO16,0.0778999999999999
NaCu5Sb2As6(H9O17)2,0.0781
Cs2Np2PO4F7,0.0781999999999998
DyAsSe,0.0781999999999998
Na2CaV12O32,0.0784
Ba5AlRu2O11,0.0786000000000002
CeBS3,0.0786999999999995
Mn2Cu10Sb4S13,0.0788000000000002
LiTi2N3,0.0788999999999999
Rb12Sn2Bi6O,0.0789999999999999
Cs3Ti3Te11,0.0790000000000001
Er2Ti12(CuO4)9,0.0792999999999999
SrTl2O4,0.0792999999999999
Np3HF12,0.0792999999999999
AcAgTe2,0.0793999999999996
V2MoO8,0.0794
Mg149V,0.0794999999999999
Sb3Au3F22,0.0795000000000001
Ce4FeSe6O,0.0795000000000003
Mn3V(PO4)4,0.0796000000000001
Ta2Ti2(CuO4)3,0.0800999999999998
Mo2P3O11,0.0803000000000002
Ti4(PO5)3,0.0804999999999998
LiV24O58,0.0806
TiSi5O13,0.0806999999999997
MnAg4(SbS3)2,0.0807999999999999
GdBrO,0.0811999999999999
NaCu3GeSe4,0.0812999999999997
Ca5Y7Al16Cr2(SiO24)2,0.0813999999999999
Na2CaMn3(SiO3)6,0.0814000000000003
Sm3GaFeS7,0.0815000000000001
Zn3Ni2(GeO4)3,0.0817000000000001
LiTiFeF6,0.0817999999999998
Mg3Si3(NiO6)2,0.0819
Li7Mn3Co3O16,0.0819
Ho7PtI12,0.0819
KCu4(PO4)3,0.0821
Ba6Ge25,0.0823
GdCu(MoO4)2,0.0823
Mg(CoS2)2,0.0823
Li5Ti3V2(PO4)6,0.0827000000000008
Gd2Ti12(CuO4)9,0.0828999999999995
PbS2,0.0830000000000001
Cu2BiTeSO10,0.0830999999999999
Y3Mg2WS8,0.0834999999999999
Li3Eu3(TeO6)2,0.0836000000000001
CsGdTe4,0.0838999999999998
KCe2CuSe6,0.0839999999999996
Ti3Mn2P6WO24,0.084
K9FeS7,0.0841
Sr2Cu(SeO3)3,0.0841000000000002
Cr2(PO3)5,0.0846999999999997
GdWO5,0.0849999999999999
Li4Ga4P4O17F3,0.0849999999999999
Mn2Zn3(SiO4)3,0.0849999999999999
K8Gd3Si12ClO34,0.0850999999999999
CsMo2P2O11,0.0854999999999999
UH8(SO6)2,0.0858999999999996
Ag8Ge3O10,0.0862
Hf2N2O,0.0863000000000004
FeSeBr7,0.0863999999999999
YCo(WO4)2,0.0864000000000002
Ca7Ni(IrO6)2,0.0866000000000006
K8La(PSe4)4,0.0867999999999999
CsTaSe3,0.0868000000000002
Tb13Zn58,0.0868999999999999
SrLaEuSbO6,0.0868999999999999
K2CuMoI6,0.0870000000000001
Li2Cu(SiO3)2,0.0871999999999997
HoN3O10,0.0873999999999999
MgMn4(OF4)2,0.0874999999999999
In4CuAg3Te8,0.0874999999999999
HoN,0.0874999999999999
CrCu(PS3)2,0.0876000000000001
BaEuNbBiO6,0.0876999999999998
Y6RhI10,0.0877000000000003
Rb3Sb,0.0878000000000001
ZrGePt,0.0881999999999996
Ce3Si2S8Br,0.0883000000000002
Pr(ZnAs)3,0.0883000000000002
Pr6Cu8P8O3,0.0890000000000004
Ca8Fe5(WO8)3,0.0891000000000001
Gd2NiO4,0.0892000000000008
UTe3O8,0.0892999999999997
Ga3Cu3(Te2Se)2,0.0893999999999994
SnS,0.0894000000000003
Li3Sn(BO3)2,0.0894000000000003
MgFe(Mo3S4)2,0.0895000000000001
Sr7IrN6,0.0895000000000001
Nd2Ti12(CuO4)9,0.0898000000000003
SnTePt,0.0899999999999998
H30Ru2Pt(NCl)10,0.0899999999999999
K3B5PH2O13,0.0901
NbFe(PO4)2,0.0903
MgMn2(AgO3)2,0.0905
Si17O37,0.0905
NbGaFe2,0.0905000000000004
Li4Cu2Ni3Sb3O16,0.0905999999999997
NaEuZrSbO6,0.0907
RbGaAgF6,0.0907999999999999
LiNb5O8,0.0908000000000002
H12W3C4NCl9,0.0908999999999999
Li2Cr(FeO3)2,0.0908999999999999
RbNa2Si17,0.0909000000000004
Pu(IO3)4,0.0909999999999997
Eu2H3Br,0.0910000000000001
Cs2NpBr6,0.0910999999999999
CuH12C6(S2N)2,0.0912999999999999
K2Nd4MgNb2O12,0.0914000000000001
Nd4CoS7,0.0915999999999996
Tm4FeS7,0.0915999999999996
NaCr2BiO6,0.0916000000000001
Lu(NbCl3)6,0.0919999999999998
LiCo(SO4)2,0.092
Li6Zr6HCl18,0.092
Ba2LiSi3,0.0922999999999998
KF3,0.0924
LiMn7(O3F)3,0.0924
MgTi2P2(HO5)2,0.0925000000000002
Mn2Co3(PO5)4,0.0935000000000001
MgTl6WO12,0.0936000000000003
DyP5,0.0937000000000001
SmCuTeS,0.0937000000000001
Sr5(SnAs3)2,0.0937000000000001
MgTi2(SiO3)4,0.0938999999999996
UTe4Br5,0.0939999999999998
Zn2Mo3O8,0.0941999999999998
La5MgRe3O16,0.0941999999999998
K2Ce2Fe4O11,0.0941999999999998
Sm4CdPd,0.0943
Li8Mn7Cu(PO4)12,0.0945
CeTmO3,0.0947999999999993
K2V3P4O17,0.0947999999999997
Ga2CuAg(TeSe)2,0.0947999999999997
Li3Mn2O4,0.0948999999999999
NaFeAsCO7,0.0951999999999999
Na2Cu2Si4O11,0.0952000000000001
Be5Pt,0.0952999999999999
Y6CoBr10,0.0956000000000001
CsLiTa(PO4)2,0.0956000000000001
Mn2V3(AgO4)3,0.0956999999999999
MgAg2(HgO2)2,0.0957000000000001
Tb7PtI12,0.0959999999999992
TiFe3Sn2(PO4)6,0.0960999999999998
K3Mo3C3(Se2N)2,0.0961
Mg3SiO6,0.0961000000000003
CuH10SeO9,0.0962
Co5(P3O11)2,0.0963
LiTiMnF6,0.0966
Na3OsO5,0.0966999999999997
TbSbPt,0.0968
V18Cu20O57,0.0969000000000002
Ba2LiGe3,0.0969999999999999
Mn(N2O5)2,0.0973
PuMoBrO5,0.0974999999999999
Li5Mn5(SnO6)2,0.0975000000000001
PrEu2NbO6,0.0975000000000001
Mg2In3WS8,0.0975000000000001
Li4Ti3Mn3(CuO8)2,0.0975999999999999
Na4Fe3P4O15,0.0977000000000001
Mg149Tc,0.0977999999999998
Cr(PS3)3,0.0978000000000001
AgSb(PbS2)2,0.0980999999999996
KNpN3O11,0.0981999999999999
Pr6CoBr10,0.0983
Ti5Fe7O18,0.0983
Li5Sn(P2O7)2,0.0985
SmFeP,0.0985000000000004
Ti3Mn2Sn(PO4)6,0.0986000000000002
Sr51W12N56O3,0.0986000000000002
Nd4CdPd,0.0988999999999999
K4Ba2SnBi4,0.0988999999999999
SrLa3Mn2Cr2O12,0.0989000000000004
Li14MgSi4,0.0989999999999999
Cs2PbClF6,0.0989999999999999
Ge(SbTe)4,0.0991999999999997
CuH5IO7,0.0993000000000001
RbUP2H8O11,0.0993999999999999
CaCu3(MoO3)4,0.0994000000000001
In3AsSe3,0.0998000000000001
NdB7ClO18,0.0999999999999999
Li2Fe2Cu(PO4)3,0.1000000000000005
Mg149Mn,0.1001999999999996
Li4Mn3Cu2Sn3O16,0.1002
Sc57Pt13,0.1002
Li4Cu3Bi(PO4)4,0.1002999999999998
Li4Cu5F17,0.1002999999999998
Cs2CeN5O17,0.1011999999999999
Mn5Ni(BO5)2,0.1013000000000001
Na7U5(SiO6)4,0.1013999999999999
Na3CeCl6,0.1014000000000003
CeMoO4F,0.1015000000000005
Ta2Zn2CuO8,0.1017000000000001
CsK5Ru2O9,0.1020999999999998
Zr64S127,0.1021
SiAg6HgSe6,0.1021
Ni2Mo3O8,0.1021999999999998
LaTiCrO6,0.1022000000000002
CeHf2F11,0.1023
Ce3Si2S8Cl,0.1024000000000002
LiCu(PO3)3,0.1024999999999998
NaZnBP2O9,0.1026
Ce6Th4O19,0.1027999999999993
Tb2F15,0.1028999999999999
VTeO4,0.1028999999999999
KCrSnS4,0.1029999999999997
K3Nd3I10,0.1029999999999997
MgAlCu3Se4,0.1030999999999999
LiCu2(PO3)5,0.1032999999999999
Mn2OF4,0.1033
GaCuO2,0.1034000000000001
Sr2MnP3O11,0.1034999999999999
Rb12Sn2Sb6O,0.1035999999999996
Zn2CuWO6,0.1036000000000001
Tl4Te3Pb,0.1036999999999999
Ga2HgO4,0.1037999999999996
Re(WO4)2,0.1038000000000001
MnCu3(SeO3)4,0.1040999999999998
NpB8O17,0.1041
Li2Mn3(FeO4)3,0.1044999999999998
MnV3Ni2(PO4)6,0.1046
Sr3MgFe2O7,0.1046
TlCu3Se2,0.1048
NaW6CCl18,0.1048
K3NpO8,0.1050999999999999
Mn8PbO16,0.1051999999999999
Li3Ti(Si2O5)3,0.1055999999999999
Sr2Y4Fe2Cu2O13,0.1055999999999999
B10Pb4O21,0.1058000000000001
Eu2ZrO4,0.1058000000000003
MgCo4OF11,0.1059999999999999
CdCu2(BO3)2,0.1060000000000003
HgPb2Br3O2,0.1062999999999998
HoP5,0.1063
Na2ScCuF6,0.1063999999999998
K8Tl10Zn,0.1063999999999998
DyCO4,0.1064
Ti3Nb2Cr(PO4)6,0.1064999999999996
Ti3Co3(SbO8)2,0.1067999999999997
Fe3(P3O10)2,0.1071
V3Bi,0.1071999999999997
Ti3CrFe2(PO4)6,0.1071999999999997
NaCu3F7,0.1071999999999999
CoBr2,0.1072
Li4Mn2Nb3Cr3O16,0.1072999999999999
Ru(SCl3)4,0.1074999999999999
CaCrP2O7,0.1076000000000005
Ba5B20(H2O19)2,0.1079999999999999
Mn2FeO3,0.1081000000000003
Sm2RuO5,0.1082
BaMg30NbO32,0.1082
Sr3(CoO3)2,0.1083000000000002
MgFe6Sb10(IO3)6,0.1083999999999996
Eu3Sn13Ir4,0.1086
Li3CoOF3,0.1086
LiMg14CoO16,0.1086999999999998
Mg149Re,0.1088
RbTiP2O7,0.1089000000000002
KCo3Cu(AsO4)3,0.1089999999999999
CaW6NCl18,0.1091999999999999
LiSmEu2O4,0.1092000000000004
Eu5B3O9F,0.1094999999999997
Sr5Ca3Ti3Mn5O20,0.1095000000000001
PrEuMnNbO6,0.1095000000000006
ZnCuAs2O7,0.1097000000000001
CaP4(Br3O)4,0.1098
CaMg30BiO32,0.1098999999999996
KPrPCO7,0.1098999999999998
CeSbMo2O9,0.1100000000000003
Cs2GaAgBr6,0.1100999999999999
Ce3Si2S8I,0.1101
BiSb,0.1101
K6Mg(SbS4)2,0.1102
VCu3O4,0.1102000000000007
Li4Ti2Nb3Fe3O16,0.1104000000000002
Li2Fe2CoO6,0.1105
Rb2Ba8Ca(Sb3O)2,0.1108000000000002
Li5Mn5CoO12,0.1109
LiV4(NiO6)2,0.1110999999999999
Li3Cr2P2(CO7)2,0.1111999999999999
BaCaEuWO6,0.1112999999999999
MgTa4Mn4Nb4O24,0.1112999999999999
Mn2HO4,0.1114000000000001
NbTlO3,0.1116000000000001
Li2LaIn,0.1116999999999999
CsU2F9,0.1117999999999996
K3As,0.1118
U6TlF25,0.1118000000000005
K2NaNb2Fe7Si8H4O31,0.1119000000000003
LiAlSi,0.1120999999999998
CeLuO3,0.1122000000000005
CsTe7,0.1124
K2MoBr4,0.1125
Li2Sn(PO3)5,0.1125000000000002
SrAgP,0.1125999999999995
HoZnCr2O6,0.1129000000000002
Gd2Te3,0.1129999999999995
La4MgMnO8,0.113100000000001
MgMn6O5F7,0.1131999999999999
K2FeGe3Se8,0.1131999999999999
Nd2Nb2S7O30,0.1134
Ti3Cr2Fe(PO4)6,0.1135000000000001
Tb2RuO5,0.1135999999999999
ZnCoPO5,0.1137000000000001
Li5Ti2Mn5O12,0.1138999999999996
TbCrSe3,0.1139999999999998
VCoO3,0.1143
Li10FeCo9O20,0.1145999999999998
Sr2LuRuO6,0.1147
MnZnO3,0.1149
Sr2FeCu(PbO3)2,0.1149000000000004
Zn3Sb2O7,0.1150999999999999
U3TlF13,0.1153000000000004
Al6C3N2,0.1153999999999992
Ba2Y2Mn4O11,0.1154999999999999
EuClF,0.1154999999999999
Mo3N2Cl11,0.1158
Ca7OsN6,0.1158000000000001
CeBMoO6,0.1158000000000001
Rb2UCl5,0.1159000000000003
Tl3Mo4(P2O11)2,0.1160000000000001
CaMn8O16,0.1160999999999998
MgHg4Te5,0.1160999999999998
K2Na2Ca4Mg15(SiO3)24,0.1160999999999998
NbP,0.1162
Ba3NaMn4Si6O23,0.1162999999999998
SnTe2Pb,0.1164000000000005
Li2Mn2F7,0.1167
Dy2B3O8,0.1170999999999997
Re(Se2Cl3)2,0.1172