formula,band_gap
Na2Ca4ZrNbSi4O17F,1.8513999999999995
BaSrMg30O32,1.8515000000000008
Na2Y6Ta2Si3(S3O16)3,1.8518
Na5Ca2Ti2P5SO24,1.8521
RbNdTiNbO6F,1.8523
MgP4WO12,1.8527
Li2V3F8,1.8532
Na2Ta4Al4Si5S7O48,1.8533
SiP4PdPbO14,1.8533
Na2MgW4O13,1.8534
RbLiZn2O3,1.8536
Mg4Ni5(TeO6)3,1.854
Na10Ti4Al4Si7S5O48,1.854
Rb3Sb2I9,1.8541
SnHg2(SBr)2,1.8541
MgP2W2O9,1.8542000000000003
H3PbCI3NF3,1.8543
Na8TiZn3Si3(SO8)3,1.8543
Na8Gd2O7,1.8545000000000005
Ca3SbI3,1.8546
Y2W2O7,1.8551
Li4Nb2Fe3O10,1.8553
Nb3In(PO4)6,1.8554
SbClO,1.8554000000000004
Na5CaTi3SiP5O24,1.8558
NaFeSnO4,1.8559
V3CdO7,1.8561
TbMoBrO4,1.8563
Li3La5Ti6Nb2O26,1.8564
B6O,1.8564
H4I3N,1.8564
NaMg14BiO16,1.8569000000000004
NaSr2NdTi4O12,1.8572
Li4Mn3P4(HO8)2,1.8572
InPb2I5,1.8572000000000009
Na3Nb7P4O29,1.8574
Na42Ca8Nb16Si33(SO48)3,1.8574
MnH2(SeO4)2,1.8575
LaTiAlPbO6,1.8576000000000008
Ba(GaSe2)2,1.8578
Zn(SbO2)4,1.8582
Sr2VAs2O9,1.8583
SrGa12O19,1.8584
UH12S2O15,1.8584
Na2SrLa2Ti5O15,1.8584000000000005
ZrHg3(SBr3)2,1.8586
K2Sb4O11,1.8586
TlCr2FeO8,1.8589
Na6Mg8Ta16Si15(S7O48)3,1.859
Na2SnBPO7,1.8592
Cs2PbO2,1.8593
NdScS3,1.8593
Zn2CrSbO6,1.8597
Na8Ca2Nb2Si5SO24,1.8603
Na2Y2Nb6Si7S5O48,1.8603
Na2Y4Ta4Si5S7O48,1.8606
RbPSe6,1.8608
Nb9PO25,1.8609
TeH18(Br3O4)2,1.861
KCuS,1.8615
Rb2TaAgS4,1.8622
Na3Ca3SnPS5O24,1.8622
Ba2TaFeO6,1.8623
Ba4AgAuO6,1.8623000000000005
TlSnI3,1.8624
MgAg4Te8(MoO12)2,1.8628
NaZnSnP(SO6)2,1.8629
RbFe(SeO4)2,1.8633
Rb2LaNb5O15,1.8633
Rb2NaCr(CN)6,1.8634
Zn4B2O7,1.8634
Cs2U3(TeO7)2,1.8635
CsMnO4,1.8635
KFe3H6(SO7)2,1.8639
KMg14AlO16,1.8639
Na2Nb6Al2Si7S5O48,1.864
NaLiCeWO6,1.8641
La2SbS5Br,1.8641
NaSr3LaTi5O15,1.8642000000000003
Sr14La6Mg3Ti17O60,1.8643
K2HoNb5O15,1.8644000000000005
MgFeAsO5,1.8646
Na2ScNb3Si4(SO12)2,1.8646
BaNaSmSeO6,1.8646000000000005
Na5La3Si3Sn(SO8)3,1.8647
Na7NbZn3(PO4)6,1.8656
ReP(Cl2O)3,1.8656
Sr5Ti8O21,1.8658
SbI(ClF3)2,1.8658
Cs2S5,1.8662
Sr3Ca(PbO4)2,1.8662
NaU4V3O20,1.8662
NaMg30BO31,1.8663000000000007
Rb2TlInBr6,1.8665
BiSI,1.8669
K2TbNb5O15,1.867
Na8Al6Si6O25,1.8673
Ca8Al3(FeO4)5,1.8679999999999997
Sr4LaCl11,1.8681
TaAl(WO4)2,1.8682
LiLa5Ti8O24,1.8682
ZnFeAsO5,1.8683
Nd6Cd(SiS7)2,1.8684000000000005
TmAu2F9,1.8684000000000005
SiGeN2,1.8685
Na2La3Nb5(PO4)12,1.8685
SbPCl8O,1.8685
Ta2H15N6Cl7,1.8687
Sr2ZrTiO6,1.8689
Hg3Se3O10,1.8689
Sb4S5Cl2,1.8692
Na3YSi2GeSO12,1.8693
NaZrCu3Se4,1.8694
La3CuSnS7,1.8694
Na10Mg4Ta4Si7S5O48,1.8695
K4U3(AsO8)2,1.8696
Ho2MnNiO6,1.8696
K3BSb4O13,1.8698
Pr5(SiN3)3,1.8698999999999997
Ba2H6Ru,1.8699
Na10Ca3Sn5(PO4)12,1.8699
LiIO4,1.87
Ba2GaAsSe5,1.8703
TmSeF,1.8704
ZnSn2(PO5)2,1.8704999999999996
NaTi2Ga2P3(SO8)3,1.8705
Na4Fe2O5,1.8705000000000005
SbAs3(Se2F3)2,1.8713
Tb2SeO2,1.8715999999999997
Sm3SiS6Cl,1.8717
Nb4Zn2Si3(SO6)6,1.8717
NaAgH2(SO2)2,1.8718
Na3SbI6,1.8721
Li4Ti11O24,1.8721
Ca2CoAs2(HO4)2,1.8722
NaAg(NO2)2,1.8723
Li3Al2FeO6,1.8726
MgV(WO4)2,1.8729
U3P2(PbO8)2,1.8729
La4Ti3O12,1.873
CaMgNiH4,1.873
MgFe2Si2SbO9,1.8731
Ag2MoO4,1.8731
K2PdF4,1.8732
Hg9(PO4)4,1.8736
TaZn2BiO6,1.8737
Na3LaTiSi(PO6)2,1.8737
Li3VCr2O6,1.874
MgFe2(BiO3)2,1.874
BaLa3TiCr3O12,1.8743
SnP2O7,1.8744
RbI3,1.8745
Na10La4Nb4Si9(SO16)3,1.8745000000000005
VBO3,1.8747
Na4CaGe3(PO4)6,1.8747
MgCr2(SbO4)2,1.8748000000000005
Gd4Au2O9,1.8749
ZrCuH8C2NCl6,1.8752
NbCr(SnO3)2,1.8758
Na7Ca2Nb2Si3(PO8)3,1.8758
Li3ZrNb(TeO6)2,1.8759
Er3CuSiS7,1.8759999999999997
MgV(Si2O5)2,1.8762
Li5AuO4,1.8762
V2Ge(O2F)2,1.8766
Ca2Fe3Sb(PO4)6,1.8767
Na2FeAsCO7,1.8771
K2ScCuCl6,1.8772
Dy2MoO6,1.8776
Na4Si2Te5,1.8779000000000003
AlSeBr3N,1.8781
K2InP2S7,1.8784
Er2MoO6,1.8785000000000005
Sr3BCNCl2,1.8788
LiU4As3O20,1.8788
U3Te5(PbO4)8,1.8788
Na2Ta4Ti4Si7S5O48,1.8791
BaNaCeSbO6,1.8795
Sr10Mg4Fe(MoO6)5,1.8798
MnMoH2SeO7,1.8798
Li2AlFeO4,1.8799
Mg14CdFeO16,1.8805000000000005
SrMo(PO4)2,1.8806
KCo2As2HO8,1.8807
MgBi2F12,1.8808
Sr3Ca(SnO3)4,1.8809
La20S29O,1.8812
RbAl3Cd(SiO4)3,1.8815
Na3BrO,1.8815
Na4B4Sb2SO16,1.882
K5Au(IO)2,1.882
Ba9(AuO6)2,1.8827
NaNbZnP2SO12,1.8827000000000005
KPSe6,1.8828
Tm6MgWO12,1.8828000000000005
Na2Nb5Al3(PO4)12,1.8831
NaMg14BO15,1.8832000000000004
V4Pb3O3F19,1.8835
Li10Ti11Nb6O42,1.8835
Cs2RbAlI6,1.8835
VSb3(PO4)4,1.8837
Nb2Cd2O7,1.8839
NaIO4,1.8841
Sr2DyBiO6,1.8842
K6NaAu2IO8,1.8846
CrXeF6,1.885
BaCaMnWO6,1.8852
RbMnO4,1.8853
Sr3Ti5O13,1.8854
Mg30BWO32,1.885699999999999
Sr2La2MgTi3O12,1.8857
K2YAuBr6,1.8862
Na9Ca5Ta7Si9(SO8)9,1.8862
K4Nb8Si(P2O17)2,1.8863
Cd5Ge(PO6)2,1.8863
Rb2PbO2,1.8864000000000003
WSCl4,1.8865
Na6Mg2Zr2Si3(SO8)3,1.8866
MgTiBi(PO4)3,1.8867000000000005
Mg30MnVO32,1.8867999999999991
Na10Sc4Si7Sn4S5O48,1.887
Na4Sn(GeS3)2,1.8873
Na5UH3S4O19,1.8874
Na3Nb6Bi5O24,1.8875
CoP2H17N4O9,1.8875
Mg2TaMoO6,1.8878000000000004
Na3GeSe3,1.8881
Sb7Se8F35,1.8882
Rb2NaSbI6,1.8884000000000003
RbGeBiS4,1.8887
KS3,1.8889
CrB2(PbO2)6,1.8898
Ga2BiSe4,1.8901
Mg14MnNiO16,1.8901000000000003
Na3ScSi2GeSO12,1.8903
KSmSe2,1.8906000000000005
Ba4Re2NiO12,1.8907000000000005
LiLa3MnO7,1.8908
Mg2MnWO6,1.8914
Li16Fe4SiO16,1.8916
Pr8Sb2S15,1.8916
Rb3Zr2P5S18,1.8916
TiZnBi(PO4)3,1.8917
LiFeCSO7,1.8918
K2U3(IO5)4,1.8921
Ca2Mn2V3AgO12,1.8921
ZnWO3,1.8923
TiMnH12(OF)6,1.8926
NaCaGe3P3(SO8)3,1.8926
Ba4Sm2Cd3S10,1.8926
NaBi3(IO2)2,1.8933
Ba2LiVP2O9,1.8934
Sr4MgCr2(SO3)2,1.8934000000000009
SbAsPCl13,1.8936
P2WO8,1.8937
Pb13(Cl3O5)2,1.8938
Sr4BrN2Cl,1.8938
Rb3Ta2AsS11,1.8938
S(IO3)2,1.8938
Y2CrSbO7,1.894
Ba5Ce4ZrO15,1.8942
Na9Nb2Zn4(PO4)9,1.8944
NaCdFe(PO4)2,1.8944
Li6NiOF6,1.8946
NaCa2Ta3O10,1.8947
Ag2H6PdS2(NO3)2,1.8949
CsMn2V2ClO7,1.8949
Rb2ScCuCl6,1.8951
Ga2SiGe2S5O24,1.8951
MgH12C4(S2O3)2,1.8952
Mn2Fe5(SiO3)8,1.8955
AuCS2Cl3,1.8955
NF2,1.8956
Li3FeSiO5,1.8957
Rb2S,1.8962
TaBi3O7,1.8963
Zn3(AsO4)2,1.8965
LaNb3(PO4)6,1.8965
NaMnPO4,1.8966000000000005
U2Si(H2O5)2,1.8968
Na15Ca7Nb5(PO4)18,1.8972
SiSe2,1.8981
SeS7,1.8983
Ce3Nd2O9,1.8987
Na3Ca3TiPS5O24,1.8988
CsMnVF6,1.8989000000000005
Li4NiOF4,1.8989000000000005
RbSmSe2,1.899
ZnGe2WO6,1.8992
V4ZnO9,1.8992
Rb2UO4,1.8996
RbPrSe2,1.8997
Si(Sn3O4)2,1.8998
Na9Ca10Nb2P3(S5O24)3,1.9002
Na6In4Si3(SO8)3,1.9003
Li2V4Si4O13,1.9007
Li7Zr3Nb(TeO6)4,1.9009000000000005
Sr2Ca49Mo12N56O3,1.901
Tl4GeS4,1.9011000000000005
CaPSe3,1.9014
NaCaTiFe3O8,1.9018
K2CuBr3,1.9018
Ba3Sb2S7,1.9022
PbF4,1.9022
Li2BiBO4,1.9029
Rb2LiMn3F12,1.903
Li3CuS2,1.9031
Na6Nb4Zn2Si3(PO6)6,1.9032
Al2Ag2Bi2S3Cl8,1.9032
Li3TiCr3O8,1.9035999999999995
Ba7Ga5AgSe15,1.904
NaIn2Ga2PS5O24,1.9042
Rb3AlI6,1.9042
K2TlAsCl6,1.905
Rb3Sb2Br9,1.9051
Sr3(AlN2)2,1.9055
UCdO4,1.9057
BaPd(IO3)4,1.9058
LiUBO5,1.9059
CsPS3,1.9062
MnH8(N2Cl)2,1.9063
LaMgFeSbO6,1.9064000000000003
K3Na2InO4,1.9065
Rb2U3(IO5)4,1.9066
Rb2Ag2GeS4,1.907
RbH2N,1.9074
Mn2Fe3Sb(PO4)6,1.9076
LuSeF,1.9077
LiTa3O8,1.9077
KH2I3O,1.9079
MgCoF5,1.9081
KBaLaSeO6,1.9081
PrMg(WO3)2,1.9081
U2V2O11,1.9082
Li3Nb3TeO12,1.9083
Nb3Co(PO4)6,1.9089
Zn2Hg2H2S2O11,1.9089
Na2Al3As9O28,1.9093
H8PtCN8,1.9094
BaLiCeSbO6,1.9094
Sr3(BN2)2,1.9096
Th4Ta18O53,1.9096999999999995
Mg30MnCO32,1.9097
Li4MnCr3(PO4)4,1.9098
Zn3Fe2(GeO4)3,1.91
H2C3,1.9102
Mg4CN4,1.9105
BaMg2H8Ru,1.9107
Sn2OF5,1.9108
Mn(H15N8)2,1.9113
Mg14CdCoO16,1.9117000000000008
Ti2Co(PO5)2,1.9118
La4As2(S2O)3,1.9121999999999997
CaP4WO12,1.9126
Li6Fe3Cu(PO4)6,1.9126
SbPbClO2,1.9127
Na6Ta2In6Si5S7O48,1.9131
Na2Nb5In3(PO4)12,1.9135
Na6Ti3ZnSi4(SO12)2,1.9139
NaSr3NdTi5O15,1.9141
Na2LiBiI6,1.9141
Ba6V4S11O5,1.9141
Ti3Sb2(PO4)6,1.9142
NaInO2,1.9142
MgAl6O10,1.9142
Sr2TiO4,1.9142
Li5Fe3Co2(PO4)6,1.9142
Na3Ti3ZnP5SO24,1.9142
Nb2Zn2SnO8,1.9143
MgCuBi(WO4)2,1.9143
CaMg6FeO8,1.9144
Ba2InClO3,1.9145
Cs3K5Mo8(P2O11)4,1.9146
Na2GeH16Se3O8,1.9147
MoPNCl6O,1.9153
NiH10C4(SN4)2,1.9155
K2RbAlI6,1.9161
TlGeI3,1.9161
PrHSe,1.9162000000000003
BaNaPrSeO6,1.9163000000000008
CsI3,1.9164
MnB2H17N3,1.9165
CaV(Si2O5)2,1.9167000000000003
Nb3Ga(PO4)6,1.917
CaFeSeO,1.9172
Mn2NbFe3(PO4)6,1.9175
La2CrO6,1.918
Na2Sc3Nb5(PO4)12,1.9182
KP2H4PtO9,1.9184
Na3V2(PO4)3,1.9185
NbAl2(SeCl4)2,1.9186
NbFe5(PO4)6,1.9188
Tl2GePbS4,1.9189
Li2SiSnS4,1.9189000000000005
Na6Nb4Zn2Si6(SO12)3,1.919
Tl2(IO3)3,1.9192000000000005
Na2ZnSnP2SO12,1.9193
CuMo3Cl7,1.9195
SbH3CSCl6O,1.9195
Pt(SCl4)2,1.9198
Rb2CaNd2(WO4)4,1.9198000000000004
K3Nb3(BO6)2,1.9206
Si4Te2H44Pd(C8Cl)2,1.9208
MgV4(NiO6)2,1.9213
Sr3CaTi4O12,1.9214
Sm9In(SiS7)3,1.9216999999999995
BaNdCrSnO6,1.922
LiLa2Ti2CrO9,1.9220999999999997
Rb2U2WO10,1.9222
Na3InSi2GeSO12,1.9225
Sm6Th4O17,1.9227
Na2Mn3Cl8,1.9228
TePb3(BrO2)2,1.923
TaCu3S4,1.9231000000000005
Na2Nb3GaSi4(SO12)2,1.9232
KV4P7O24,1.9235
Rb2Nd2Mg(WO4)4,1.9235
Rb2ZrS4,1.9236
RbMgCoF6,1.9239
Na2Li2NiP6(H4O5)6,1.9243
BaNd2Ti3O10,1.9244
KFe4(SiO4)3,1.9244
Na3MgNb5Si6(SO12)3,1.9244000000000003
Na7La7Th2Ti18O54,1.9245
P8W3O29,1.9246
Rb2Cr2As2O9,1.9248
Na2CdSnS4,1.925
HoMg(WO3)2,1.9251999999999996
Li5Fe(CO3)4,1.9253
BPb7Br3O7,1.9254
Sr5Li25La7(BiO6)8,1.9255
Na6Ca3GeP4(SO12)2,1.9258
NaErSe2,1.9258
Na2LaNbSi2SO12,1.9259
Fe7(SiO4)4,1.926
Mg30VZnO32,1.9261
Li8Te2O9,1.9261000000000004
TaTiAlO6,1.9264000000000008
Sb2PbO6,1.9265
PI2,1.9267
VSb(PO4)2,1.9271
RbUC3O8,1.9272
NaMn2V3(PbO6)2,1.9277
Cs2PrAuCl6,1.9281
MgFe2P2(HO)18,1.9284
LiCoF4,1.9285
Os2Xe(O3F5)2,1.9286
Na4TeSe,1.9291
Mg2BiWO6,1.9293
NaLi2La3Ti6O18,1.9293
CaFeAs2O7,1.9294
Na2Y3Ta5Si6(SO8)6,1.9296
KVF4,1.9296
CaCoAsHO5,1.9298
SIO3F,1.9298
Sb4I2O5,1.9298
V4CuNiO12,1.9302
Na9Nb5Zn(SiO4)9,1.9305
LiFePO4F,1.9307
Na10Zn7Sn7H24(S13O6)2,1.9307
Li5V2P5O18,1.9323
MgTi2Pb4WO12,1.9324000000000003
Na5Y3Ti(PO4)6,1.9330000000000005
SrLaI5,1.9331
Na5VO5,1.9331
Y5(GeN3)3,1.9331
Rb2LiBiI6,1.9334
Mg2Sn3O8,1.9335000000000004
Mg11Mn2O13,1.9335000000000004
RbTbSe2,1.9336
TaNO,1.9338
Mg3Fe2O5,1.934
Rb2Li14Pb3O14,1.9342
Rb3DyO3,1.9348
Mn2Ru(CN)6,1.9348
Ag3H13SeN4O5,1.9349
Cd(AsO3)2,1.9349
LiMnBO3,1.9349
Na6Ta20Zn4Si21(S5O48)3,1.935
Na3Mg2Nb10Si3(P5O24)3,1.935
K2PtN4(ClO4)2,1.9353
Na6Mg7Ti(SO4)12,1.9357
Na2Nb3InSi4(SO12)2,1.9359
BaNaSr3(SbO4)3,1.9361
Li5FeO3F,1.9363
CaCr2P2O9,1.9363000000000008
Mg(SbO2)2,1.9365
Na6Ca2Nb4Si6(SO12)3,1.9368
ZrHg3(SeBr3)2,1.9368
V3Cd5P6O25,1.9370000000000005
UV2PbO9,1.9374
Li2V3P9O28,1.9376
RbCdAuS2,1.9376
Re(TeBr2)2,1.9379
Co3B7IO13,1.938
Rb2HgF4,1.9382
Ag2WO4,1.9382
KSrSmSeO6,1.9386000000000003
Li7VN4,1.9388
LiLa2VO6,1.9389000000000003
LiMoAsO6,1.9394
SbH4NCl6,1.9394
Si10BiTe2H73C25,1.9396
Sr2LiCoWO6,1.9398
Na5LaO4,1.94
Rb3Er7S12,1.94
Na10Ta4Zn4Si7S5O48,1.9401
Ca6V3Fe7O24,1.9401
Li8Co(O2F)2,1.9403
Mg3V6(FeO6)4,1.9407
Li6Mn(OF)3,1.9407
Zn3Cr2(GeO4)3,1.9408
S2Xe(O3F)2,1.9408
Tl2TeO3,1.9408000000000003
La10S14O,1.9411
Rb2PrCuBr6,1.9411
YNb3(PO4)6,1.9411
Cs4V2S4O3,1.9412000000000005
NaGa3Se5,1.9413
TlP2HO7,1.9415
NaB9Se8,1.9422
Sr25Ti39O103,1.9422
Na2Mo(H2O3)4,1.9423
ScNbSi(SO6)2,1.9425
Li6CrSn3(PO4)6,1.9426
Sr3ZrTi2O9,1.9426
LiCuSi2O5,1.9426
MgV2(FeO4)2,1.9428
AgMoPO6,1.9428
Na2Ca5Ti3(SO4)12,1.9429
MgFe3P3O13,1.943
MnBiAsO5,1.9432
SbCNCl5,1.9435
TaP4(SCl)5,1.9435
TaTl2AgS4,1.9437
TaNb3V4O20,1.944
AlNiF5,1.9441
LuAu2F9,1.9441
Na7MgNb3(SiO4)6,1.9441
Na4Y3NbSi3(SO8)3,1.9442000000000004
Na5MgTi3SiP5O24,1.9443
Na42Mg20Ta4Si15(S7O48)3,1.9447
SbSeCl7O,1.945
Na9Sr2La9Ti20O60,1.9453
Sr2TmBiO6,1.9455
Ti2P2O9,1.9456
NbBr3O,1.9457
Rb2PtCl6,1.9459
Re2H4O9,1.9464
Ti2Fe(PO5)2,1.9465
Rb2Pr2Mg(WO4)4,1.9467
Rb2Hf2O5,1.9468
CaU(SeO4)2,1.9468
Cs2ScInI6,1.9468
NbGa(SnO3)2,1.9471
V6Zn3(FeO6)4,1.9476
Na5Y3Si3Sn(SO8)3,1.9477
UTiNb2O10,1.9478
Gd3NCl6,1.9483
Na10NbAl7Si6(SO8)6,1.9484
Rb2NaMn(CN)6,1.9485
BaSe,1.9488
Mg2MoWO6,1.9489
Na2NbAl3P4(SO12)2,1.9490000000000005
PrI3,1.9493
Li3V5(PO4)6,1.9493000000000005
MgAsWO5,1.9494
BaSrNbBiO6,1.9496
Gd3NbO7,1.9502
K6InTe4Cl,1.9503
Ba2CaV2(P2O9)2,1.9504
Li6V3Cr(PO4)6,1.9505000000000003
LiFe(GeO3)2,1.9506
Tm10Ti6O27,1.9511
Sr2ErBiO6,1.9513000000000005
VAgOF4,1.9517
UOF4,1.9526
Na3MgMo(OF)3,1.9528
Li6VO5F,1.9528
TlSn2F5,1.9531
Mg3WN4,1.9534
Na2La2Nb6Si7S5O48,1.9534
Ta3O7F,1.9542
ScMn2SbO6,1.9542
NaV3(SO7)2,1.9544
Tl4SiS4,1.9544999999999997
Mg30GaBO32,1.9546
TiAsH18C6N3Cl4,1.9546
Rb2TaCuSe4,1.9549
Mg3V4(PO4)6,1.9549000000000003
Rb2TlSbCl6,1.9551
Ca2CrSbO6,1.9551
Tl3VS4,1.9554
Na2LaNb3Si4(SO12)2,1.9555
Y6UO12,1.9558
Na6Nb2Zn4Si3(SO6)6,1.956
MgV2CoO7,1.9566
KCa2Nb3O10,1.9568
Rb2NaRhF6,1.957
Na4Mo(NO)2,1.9572
LiVH2OF5,1.9578
LiLa2HO3,1.9578
VH15C4S2(NO5)2,1.9578
MnH16C4N(OF2)2,1.9584
K2NiHgF6,1.9584
RbHoSe2,1.9587
Ca3Ti(FeO4)2,1.9589
Na2ScGe(PO4)3,1.9589
ZnCr2(PO4)2,1.9589000000000003
Na14Mg2Si9Ge6(SO16)3,1.959
Na2Ca17V2(PO4)14,1.9593
Cr2PBrO4,1.9593
Tm2SeO2,1.9593000000000005
TmMgSb(PbO3)2,1.9594000000000005
V2ZnCoO7,1.9595
BaSmCrSnO6,1.9597
Ba16Ca2HC12N25O4,1.9597
MgNiF5,1.9597
MgCoAs2O7,1.9598
BiXeF9,1.9598
K5Na3Ta7NbO24,1.96
Os4C13SO13,1.96
ScIO,1.9603
Na2Hf2O5,1.9603
VP3(HO5)2,1.9608
LiNiOF,1.9612000000000005
Ag2W2O7,1.9614000000000005
Cs3P11(H3N)3,1.9621
Gd3SOF5,1.9623
Li3V(SiO3)3,1.9627
Na2UI4O15,1.9628
Na5In3Si3Ge(SO8)3,1.9629
Zn2Ni11O13,1.963
Sb5IO7,1.9632
Na6Ca7Ti(SO4)12,1.9633
LuMoBrO4,1.9634
MnVH4O2F5,1.9634
KSrNdSeO6,1.9635
Na10Y4Nb4Si9(SO16)3,1.9643
Sr2UCdO6,1.9643
NdCu(MoO4)2,1.9651
NaMgSnP(SO6)2,1.9651
La5(SiN3)3,1.9651999999999996
Na5Li3(TiS4)2,1.9652
CsPrCdSe3,1.9664
HgH2SO5,1.9665
CaVF4,1.9666
Pb4SeBr6,1.9666
Li3P11(H3N)17,1.9668
WBrCl3O,1.9672
Na6La4Nb4Si7S5O48,1.9673
Na14La6Nb2Si9(SO16)3,1.9673000000000005
SbCNCl6,1.9675
Cs3Nd(PS4)2,1.9675
Zn2AsHO5,1.9675
K2NaNb3O9,1.9676
NaTi2Sn2P5SO24,1.9676
FeH16C4S4(N4Cl)2,1.9677
MgSe2,1.9685
H13RuC6SN4O8F9,1.9685
NaLa6Ga3S14,1.9689
Si(PbS2)2,1.9690000000000003
Na6Zn3Si2Ge(SO6)4,1.9695
UH16C4(NO3)4,1.9701
ScTlP2S7,1.9704999999999997
TiIn2O5,1.9707
Na2Sc4In4SiS11O48,1.9709
MnVBiO5,1.9709000000000003
VZnSe2O7,1.971
Sb2S19F12,1.9712
K6ZnS4,1.9714
Na3AuO2,1.9715
PrZrNO2,1.9717
Na8ZnSi4Ge3(PO12)2,1.9717
K2Cr4O13,1.9718
Sm2MoO6,1.9718
Th2N2O,1.9719000000000009
Na14Ti4Ga4Si9(SO16)3,1.9721
V(SeO3)2,1.9721
UTlH(SeO4)2,1.9722
NaNb2PO8,1.9724
Na6MgO4,1.9734
TlCuPS3,1.9735000000000005
KV2Fe(AgO4)2,1.9738
MgMoP2O7,1.9738999999999995
Li3Nb(FeO2)4,1.9741
Na2LaTi(PO4)3,1.9744
CaLaFeSbO6,1.9744
Li6Ti2S6O,1.9745
Li4V2SiGeO10,1.9746
PrCu(MoO4)2,1.9748
Sr2RhF7,1.9751
Zn2GeO4,1.9752
CsFeO2,1.9752
NaCdAsS3,1.9753
VP2H4NO7,1.9755
Rb2NaNb6(PO8)3,1.9757
Li2CeO3,1.9757
La3AgGeS7,1.9759
K5Th(PS4)3,1.976
Si3Pb11O17,1.976
Na21Mg10Nb2P15(SO24)3,1.9761
NbSe2SN2ClF6,1.9763
Li9Al(CoO4)2,1.9766
Li3V(BO3)2,1.9767
Na3InSiGe(PO6)2,1.9768
ReF7,1.9773
ZrSnCl6,1.9774000000000005
H8C2I3N,1.9774000000000005
Lu2Mn(GeO3)4,1.9777000000000005
Na14Ti3Zn5(PO4)12,1.978
Ba12In4S19,1.978
Sr2LuBiO6,1.978
LiV6F13,1.9781
Rb2MnP2H3(O4F)2,1.9783
MgSn2WO6,1.9784
K2ZnO2,1.9785
V3H8(NO4)2,1.9786
Ge(PbS2)2,1.9788
UH2Cl2O3,1.9788
MoH8S2(NO)2,1.979
SmAgS2,1.9792
Y2MoO6,1.9796
H2CS3,1.9797
MnV5H20NO22,1.9797
V3SiP5O19,1.9799
Li2CrCSO7,1.9799
ThSnI6,1.98
ZnPS3,1.98
V2Cd(P2O7)2,1.9801999999999995
MgVPO5,1.9802
Li5CoHO4,1.9803
Tl2CoH12(SO7)2,1.9805
BaU2V2O12,1.9807
Tl2(SeO3)3,1.9808
LiAuF4,1.9809
Na10Mg3Ti5(PO4)12,1.9813000000000005
Na5La2Ti2SiP5O24,1.9814
Sb2XeF14,1.9814
Na4TeO5,1.9815
Na3MgGe(PO4)3,1.9817
KNaNb2O6,1.9821
H10IrC2(ClO)3,1.9822
Na3LaNbSi2PO12,1.9824
MgV2(PO4)2,1.9825
MgTi3Nb2(PbO3)6,1.9826000000000008
Sr3U(Te2O7)2,1.9828000000000008
Ti3PbO7,1.9829000000000003
As2S3(NF6)2,1.983
Zn(Bi25O38)2,1.9832
Li12VCr3P4(CO7)4,1.9837
Na7Zn2SiSn2P5O24,1.9837
Ni9Te5(PbO5)6,1.9839
La2Cd(SeO)2,1.9843
NaHf2Sn2P5SO24,1.9844
YNb2NO5,1.9845
NaGeSbO5,1.9847
La6Zn(SiS7)2,1.9847
Na6BeO4,1.9848
TlVTeO5,1.9854
Na2SrV3O9,1.9857
Li2Cr(BO2)5,1.9858
RbCr4BiO14,1.9859
Li2CrPO4F,1.9864
VP3(HO)6,1.9864
UH18C7(N2O3)4,1.9867
Na4U3Te5O21,1.9868
K3Ta2Cu3Se8,1.987
DyInO3,1.9871
Na2Nb6In2Si7S5O48,1.9871
La2Ti3O9,1.9872
TlBr,1.9877
Na6La5Nb3(PO4)12,1.9878
Ba2La6Mg4Ti3WO24,1.9881
MgMn(SbO3)2,1.9881
Mo(HO2)2,1.9883
Mn2SiO4,1.9885
TlHg6Se4Br5,1.989
RbTl(SO4)2,1.989
MgVNiP2O9,1.9890000000000003
HgH16(Br3N2)2,1.9892
Ba2CuIO2,1.9892
BaV2(PO5)2,1.9897
K4BaU3O12,1.9898
ZrZnN2,1.99
KLaHfSnO6,1.9904
Rb2V3O8,1.9907
Tm2Mn(GeO3)4,1.9907
Na15Nb5Zn7(PO4)18,1.991
BaH8(IO6)2,1.9918
Li7V4P9O32,1.9918
Li3V2P2O8F3,1.9919
Zn2FeWO6,1.992
Li7CuO4,1.9921
Li7Fe6(SiO4)6,1.9923
In14Ga3Pt2O8F15,1.9925
Na21Mg4Nb8Si15(PO24)3,1.9925
Na3Nb4Zn2(PO4)9,1.9929
MgVBr2O,1.9932
Na3Li3Rh2F12,1.9933
SnBrF,1.9941000000000004
Ba3TaN3Cl2,1.9944
Mg4Al9Cu(SiO4)9,1.9945000000000004
RbAuS,1.9946
RbCu2I3,1.9946
KZrVF7,1.9948
NdPS4,1.995
Nd4(GeS4)3,1.9952999999999996
Na7Mg2Ti2SiP5O24,1.9953000000000003
TlSO4,1.9958
Na12Nb4Zn2(SiO4)9,1.996
Cr2SiO4,1.9961
Pr4(GeS4)3,1.9961
Ca10Ti8NbFeO30,1.9961
Al2PbSe4,1.9961
Na5In2SiGe2P5O24,1.9963
Nd4Au2O9,1.9966
CaMg2N2,1.9969
SrReN3,1.9969
CsLi(H2N)2,1.997
KGeAuS3,1.9974
SbBr(OF3)2,1.9974000000000005
NaMo6Br13,1.9979
Na10Mg3Ge5(PO4)12,1.9979
VSi3Bi61O100,1.998
Mn2BiPO6,1.9980999999999995
Na3SbSe3,1.9982
Na15Ca7Ta5Si9(SO8)9,1.9983
Na2NbZn(PO4)3,1.9984
HgSeO3,1.9987
Na6Ta3In5Si6(SO8)6,1.9993
SbS7IF6,1.9994
Fe3Te3ClO10,1.9996
Na2YInSi(SO6)2,2.0
Na3ScSi3Sn3(SO8)3,2.0002
Li6VO4F,2.0004
Sm4GaSbS9,2.0006
Na6La2Nb6Si9(SO16)3,2.0007
NdHO,2.0008000000000004
ZnHNO4,2.0012
LiV2P2H5O11,2.0013
NClO3,2.0014
NaMnIO6,2.0015
ReSbOF10,2.0016
MnH19C6I3N2,2.0021
NaVAsCO7,2.0022
V4Cd3(PO4)6,2.0024
UCd(MoO4)4,2.0026
TlV3O8,2.003
Li7Co(OF)3,2.0037000000000003
Sr10Sb16H6Se7O30,2.0038000000000005
YAg3(PS4)2,2.0041
TeHO3,2.0041999999999995
In5Br7,2.0043
Cs2TlSbCl6,2.0043
MgSnAs2O7,2.0044
Na3La2Ge2P5SO24,2.0045
Na14Sc4Ti4Si9(SO16)3,2.0046
Rb2NaInBr6,2.0049
Tl4Br3Cl,2.005
Na14Mg4Ta4Si9(SO16)3,2.0052000000000003
Sr4CaCr2(SO3)2,2.0054000000000003
RbLi2Cr2(BO3)3,2.0057
Na8Mg2In2Si3(SO8)3,2.0058
Na2Ti3ZnP4(SO12)2,2.0061
Ti2In2SiS5O24,2.0061
Rb3MgNb5O15,2.0066
Sb2(SeO4)3,2.0067
LiFe5(P2O7)4,2.0067
Li8VO5F,2.0073
Na9Ca2Nb4Si6(PO12)3,2.0073
Na3MnP8O23,2.0079
Na3AsSe3,2.0081
ErCrHO5,2.0083
Rb2CrH2Cl5O,2.0087
NiH20(C4N5)2,2.0089
MgSnO3,2.0089999999999995
Na4MgTiSi(PO6)2,2.0090000000000003
UPb(SeO4)2,2.0090000000000003
ZnCoP2H12O11,2.0092
Y2Ti2SiS5O24,2.0093
Rb2CoAgF6,2.0093
Sr3BPO3,2.0101
Na2La6Ta2Si3(S3O16)3,2.0101
Na3TiZn(PO4)3,2.0101
Sc2SO2,2.0102
LiCaFe3SnO8,2.0104
Na18Ta20Zn4Si27(SO16)9,2.0111
Sr2AlGaFe2O7,2.0116
SrLaCrO4,2.0116
Na2YNbSi(PO6)2,2.0117000000000003
Li12V3NiP4(CO7)4,2.0119
Na3Ca4Nb8P15(SO24)3,2.0119
MgP4(Br3O)4,2.0122
Na30Mg16Ta8Si15(S7O48)3,2.0125
ZnCr2P2O9,2.0125
Sr2CaMoO6,2.0125
SrFe3P3O13,2.0126
SmMoBrO4,2.0128000000000004
Ba2Bi2O5,2.0129
ZrI4,2.0134000000000003
Sn7(SBr5)2,2.014
SmI3,2.0141
V2HgO6,2.0142999999999995
VP2Pb2O9,2.0142999999999995
Na6Hf4In4Si5S7O48,2.0144
Na30Mg8Ta16Si27(SO16)9,2.0146
Li3V2F9,2.0148
Li6Mn3Sb(PO4)6,2.0149
Mg(AlS2)2,2.015
SiCl2,2.0151
Na4MgTi2(GeO5)2,2.0152
Na2Ti9O19,2.0157
Tl5Re6Se8Cl7,2.016
Co2BiB(PO5)2,2.0165
Na7Fe3O8,2.0167
Li3V2OF7,2.0167
BeTe,2.0173
Na2La4Ta4Si5S7O48,2.0177
CsK2IrF6,2.0177
LaMgTiFeO6,2.0177
NaSb(PS3)2,2.0182999999999995
Sr2TbBiO6,2.0184
NaS2,2.0185
Gd8Zr7O26,2.0192
Nb3ClO7,2.0193
Gd2SO2,2.0194
TePb2O5,2.0196
NaMnCl3,2.0196
ZnSi4WO10,2.0197
NaNbIn3P3(SO8)3,2.0202
MnNb2Zn2O8,2.0203000000000007
Na3La2Nb2SiP5O24,2.0204
Li6PS5I,2.0205
Al2RhC4Cl7O4,2.0207
Sb2H8Pt(OF3)4,2.0209
Na2U(WO5)2,2.0214000000000003
Nb2Fe4O9,2.0215
Na9Nb8Zn4Si3(P5O24)3,2.0217
Na5InS4,2.0219
Na14Y6Nb2Si9(SO16)3,2.0224
Na3TiZn3PS5O24,2.0225
Na2MnVF7,2.0226
Rb2ScInI6,2.0229
MgCr3(P2O7)2,2.0229
Mg3Fe3(AsO4)4,2.023
Te3As2S(OF6)2,2.0234
NaCa2V3(CoO6)2,2.0238
Rb4V2S4O19,2.0238
NaY2Ti2P3(SO8)3,2.0239000000000003
Rb2LiIrF6,2.024
AsXeF11,2.0241
Na2Sc4Ga4SiS11O48,2.0242000000000004
Tl2BiP2S7,2.0249
Cs2K2TeO5,2.0249
Na5In3Ge(PO4)6,2.0253
Na4InSi2GePO12,2.0256
Li3MnVP2(HO5)2,2.0258
Sm2PbS4,2.026
NaCaCeSbO6,2.0266
Ta2Cd2O7,2.0269
Li2Cr5(PO4)4,2.027200000000001
Na14Ti4Al4Si9(SO16)3,2.0274000000000005
SrLaCrSnO6,2.0276
Rb3W2N5,2.0278
SbPHO5,2.0280000000000005
Na4CaTi3(PO4)6,2.0281
Na2Te,2.0282
Ti3Mn2Ni(PO4)6,2.0286
La2TeO2,2.0287
Na15Mg7Nb5(PO4)18,2.0287
NaY3NbP3(SO8)3,2.0287
Na3V2P2O10F,2.0287
Na2La3Ta5Si6(SO8)6,2.0292
Rb8BaNaAl11Si13O48,2.0294
RbV2Fe(AgO4)2,2.0295
KNa2WN3,2.0295
Pr2PbS4,2.0295000000000005
SrV3O7,2.0297
Na2Mg3Zr(SO4)6,2.0298
Na3ClO,2.0299
RbLuSe2,2.0299
Na8TiO6,2.0299
Na3CaTi(PO4)3,2.0301
Na5CaSiSn3P5O24,2.0302
Na6Ca4Nb2Si3(SO6)6,2.0305
LiCoAsO4,2.0307
TiV2O7,2.0311
TlBi(PS3)2,2.0312
Pr6Cd(GeS7)2,2.0313
V3P4Pb2O17,2.0313
NdSI,2.0315
NaYTiP2SO12,2.0316
Na3Ca2Nb4(PO4)9,2.0317
SrCaLaBiO6,2.0322
ScAg(PS3)2,2.0325
Na2Zr2O5,2.0327
Na2SnO3,2.0329
K2Cd(AuS)4,2.0329
Mn3(BO3)2,2.0333
Sr3CdPtO6,2.0334
Ta7InO19,2.0335
Re2S2O13,2.0338
Rb2TlCoF6,2.0341
Rb5Th(PS4)3,2.0349