formula,band_gap
MgSiSb2,1.2745000000000002
Nd6S4BrN3,1.2748999999999997
Sb2S3,1.2751
Nb(PS4)2,1.2752
RbEu2I5,1.2759
Si3Ag10S11,1.2759000000000005
Sr2H6Pt,1.2760000000000002
WSBr4,1.2761
MgTiV2CrO10,1.2762000000000002
NaTaN2,1.2764999999999995
Tl4Sn5S12,1.2765
Na2Ta2Ga2Si3(SO8)3,1.2778000000000005
Nd6Ge3S14,1.2778999999999998
YMn(WO4)2,1.2781999999999996
Sb8I2O11,1.2782
VIn3Se4,1.2782
SrH2,1.2783
NaCaNb3(PO4)6,1.2788
Rb8Cu6As8S19,1.2793
Na4Ga2Si3Sn2(SO8)3,1.2793
ZnSnAsO5,1.2799
Na2(ReSe2)3,1.281
Na4ZnSiGe(PO6)2,1.2811
Tb2Mn3Sb3O14,1.2811999999999992
Zr6CCl14,1.2812
V2O3F2,1.2812
LiTe(H3N)4,1.2815
Zn5(SiN3)2,1.2815
K2VAgS4,1.2817000000000005
MgMnV4CoO12,1.2817999999999998
Zr6NCl15,1.2817999999999998
SrS2,1.2822
MnGaO3,1.2823000000000002
Li2V5Cr2O12,1.2826999999999995
Rb2InSbCl6,1.2828
RbNdNb2O7,1.2836
Na2Ca4Ta4Si3(S3O16)3,1.2836999999999998
RbAsOF5,1.284
Na2InAgCl6,1.284
Zn2InAgTe4,1.2843
Sr2FeMoNO5,1.2846999999999995
SrAgTeF,1.2846999999999995
Li4MnV(PO4)3,1.2855999999999996
MgMn2V2O7,1.2856
Zn2Si2AsP3,1.2859999999999996
LiVN2,1.2871
NaAlTe2,1.2875000000000003
Y3CuSnS7,1.2875999999999994
Rb2MnCl4,1.2877
Rb2BaNb2Se11,1.2878
Li7MnO5F,1.2879
U(SbO3)2,1.2887000000000004
Sm4Se3O4,1.2890999999999997
K3Cu3P2,1.2892
KCaHfBiO6,1.2895
BaTbInWO6,1.2902999999999991
Na6Zn4Si3Ge4(S3O16)3,1.2903
Li7Mn3(SiO6)2,1.2906000000000004
Na6Al4Si5Ge4S7O48,1.2907000000000002
Na3CoSiCO7,1.2908
Rb6CdO4,1.291
Ta2Hg2F11,1.2916
Li2V(PO3)4,1.2918000000000005
Rb4Mg(CoO3)2,1.2919999999999998
Na30Mg16Nb8Si15(S7O48)3,1.2919999999999998
NdCoSbPbO6,1.2922000000000002
VFeP2(O4F)2,1.2924
NaMg6WO8,1.2925000000000004
V3O2F5,1.2925999999999995
Na7Mn5P3H6O15F13,1.2927000000000002
Rb2InAgCl6,1.293
Na14Ti2Zn6Si5S7O48,1.2931
Na6Nb20Zn4Si21(S5O48)3,1.2931
GdMnGe2O7,1.2932
Rb3BAs2,1.2941000000000005
Na15Ca7Nb5Si9(SO8)9,1.2942
TbBi2BrO4,1.2946
Na6Cd(SnS3)4,1.2949000000000002
Tl2B2Se7,1.2951
Rb2AgAsCl6,1.2952
MnVSbO6,1.2952999999999992
CaPtO3,1.2953
Rb3Nb2S11,1.2958
Nd6MnS10,1.2959000000000005
Na10Ti2Zn6Si3(S3O16)3,1.2963999999999998
MoP2H18(C3Cl)2,1.2965
Na6Cr2As(CO4)4,1.2966999999999995
Ta3In2Cl9,1.2972
LiZnP,1.2972000000000006
CsTeAu,1.2977
Li4Ti3Nb2Co3O16,1.298
Na7Mg3TaSi3(SO8)3,1.2982999999999998
Sr2NF,1.2984
RbCaAs,1.2985
Tb2MgS4,1.2985999999999995
Mn2FeSbO6,1.2988999999999995
Na2Fe3SbO8,1.2992
LiCa2HC3,1.2992
NaB10Pb4Cl2O19,1.2992
Tl2PAuS4,1.2994000000000003
HoSF,1.2996
Na4PbO4,1.2998000000000005
LiCr3(FeO4)2,1.3003
Na6La4Si5Sn4S7O48,1.3003000000000002
NaFe4(MoO4)5,1.3009000000000002
Li4Ti3Nb2Fe3O16,1.3010000000000002
Mg30CrFeO32,1.3011
PrVO3,1.3015999999999996
MgCr2O6,1.3026
Rb3LuCl6,1.3029
Tl3BO3,1.303
Na10Ca4Ga4Si3(S3O16)3,1.3030000000000002
Na2Zr2Ti2Si3(SO8)3,1.3031
MgScMo3O8,1.3031
Ti2Tl3P5S18,1.3031
MgSiAs2,1.3031999999999997
Mg(BiO2)2,1.3033
Na8Ca3Ge(PO4)6,1.3037999999999998
Ti3MnSn2(PO4)6,1.3037999999999998
ZnCr2F12,1.3037999999999998
RbUCrO6,1.3042
RhSCl5,1.3047
LuAgSe2,1.3047
Li4VO3F2,1.3049
YZnPO,1.3049
RbFeCl4,1.305
TcF4,1.3061
SmBi2IO4,1.3061000000000005
Na2Ca4Ti4SiS11O48,1.3062
SbKr3F11,1.3064
Na2Sc2Ta2Si3(SO8)3,1.3065
MgTiV4CoO12,1.3066
LiMn28O56,1.3066
TmTlO2,1.3066
Na2Sc4Nb4Si5S7O48,1.3067000000000002
TePIr,1.3068999999999988
Te7IrBr7,1.307
Sr3MgCr2S2O5,1.3072999999999997
Y20Cu6(Pb3Se14)3,1.3074
Hg2AsCl2,1.3074
NaYGeP2SO12,1.3074
NaV2(PO4)3,1.3079
Tl3Ag3(AsS3)2,1.3079999999999998
Ti3FeSn2(PO4)6,1.3088000000000002
Ti2VHO6,1.3090999999999997
Na2La6Nb2Si3(S3O16)3,1.3093
S5N2ClO6,1.3093
In2Te9RuCl8,1.3095
MgTl6(SbS4)2,1.3095
Na4La2Ti2Si3(SO8)3,1.3096
MgMn4(FeO6)2,1.3099
NaCaTaSi(SO6)2,1.3099
Nd2TeO2,1.3099999999999996
Tl3B3Se10,1.3101000000000005
Na2TiO3,1.3114
Rb3NiO2,1.3115
VFe5(PO4)6,1.3117000000000003
Li2V2Si2O9,1.3120000000000005
Ba8In8O19,1.3122000000000005
Li3Ti2V3O10,1.3123999999999998
YSF,1.3132
Zn5Se4S,1.3133
Cs2(PSe2)3,1.3135
Na14Mg4Nb4Si9(SO16)3,1.3137999999999996
Sr2FeH6,1.3141999999999998
Li3Mo(PO4)2,1.3146000000000004
Pr4Se3O4,1.315
Re3(SeBr)7,1.3152
K2TaNbO6,1.3152
Cs2MnF5,1.3155
RbSmTe2,1.3163999999999998
Mn3Zn3(AsO4)4,1.3164
PAuS4,1.3165
Ce5Sm2O13,1.316599999999999
Na2ZrSe3,1.3166000000000002
LiVCO4,1.3169
VCo5AsO10,1.3170000000000002
Na2Ta2Al2Si3(SO8)3,1.3172
Na5SrNbP4,1.3189
Li6Fe3Sb(PO4)6,1.3198000000000003
Sr(RhO2)2,1.3203999999999998
MnGe7N10,1.3206000000000002
Sr3TaAs3O,1.3209999999999995
Na4Sr2TiP4,1.3214
CaNd2Ti2Mn2O12,1.3218000000000003
YV(SeO4)2,1.3221999999999996
Nb2Se17Cl12,1.3224
Sr5(AuO4)2,1.3224
Sr2CeNiO6,1.3228999999999995
ZnCrFeO4,1.3234
NaV3F10,1.3235
Na2Ti2Zn2SiS5O24,1.3239999999999998
Sr4SiP4,1.3242999999999996
Rb2BiAuF6,1.3242999999999998
SrLaDySnO6,1.3247
Pd(SeBr3)2,1.3249
Mg14VFeO16,1.3251
Na4Ce(As2O7)2,1.3252
Zr(TlSe)4,1.3253999999999997
MgV2(OF)3,1.3254
LaMnZnFeO6,1.3254
V2Co2Se2O11,1.3256
Na4Mg(FeO2)4,1.3258
NaLaNb4O12,1.3258
Re3(SBr)7,1.3261
Mg6ZnFeO8,1.3261000000000005
Cs3AuO,1.3261000000000005
LiScVO4,1.3262999999999998
Li4Nb2Fe3Sn3O16,1.3262999999999998
LiCrBO3,1.3266
TbBi2IO4,1.3266999999999998
Na2Hg3S4,1.3273
Ag2PHO4,1.3274
TiMnO3,1.3274000000000004
NaCaNb3(BiO6)2,1.3275
MgTiFeO4,1.3276999999999997
Li10Si(PSe6)2,1.3277
Mg30AlNiO32,1.3278000000000008
Lu9B5S21,1.3279999999999994
Na2Al4Si3Ge4(S3O16)3,1.3280999999999996
ZnCdS2,1.3281
BaYAgSe3,1.3282000000000005
Mg2TaMnO6,1.3282000000000005
Li4V3Cr2Sn3O16,1.3282000000000005
TaTiFeO6,1.3284000000000002
Mg4ZrN4,1.3285999999999998
Li5V5(CoO6)2,1.3290000000000006
Dy2VFeO6,1.3296
Mg2PbO4,1.3297999999999996
Na10Ti4Zn4Si5S7O48,1.3298
LiCoGeO4,1.3311
TiMn3Te2(PO4)6,1.3313
Na2Sc3Nb5Si6(SO8)6,1.3314
Na5Ca3GeP3(SO8)3,1.3316999999999997
Sr4(NiO3)3,1.3317
SiAg2S3,1.3317
V4Zn(PO4)6,1.3319
VN2(Cl3O)2,1.332
Sr2HoMoO6,1.332
ZnBiSbO5,1.3321999999999998
Rb2VAgS4,1.3323
Ga3Te3Cl,1.3323000000000005
ZnH10C2(Se2N)2,1.3324
Sr2YAlCr2O7,1.3326000000000002
Na9CaFe10(SiO3)20,1.3327
SbO2F,1.3329
Ba2B4Se13,1.3329999999999995
MgV2Pb3O8,1.3336999999999994
Li3V4P9O32,1.3339
TiSiAg2O5,1.334
Mg2Ta2SiS5O24,1.3346
Y2MgS4,1.3349000000000002
Na4SeO5,1.3349000000000002
V2FeO6,1.3356999999999997
NaPrNb4O12,1.3357
V2ZnO6,1.336
MnZn3(FeO2)8,1.3361999999999998
RbF2,1.3362999999999996
Sr3(AlP2)2,1.3365000000000005
Sr2MgCrO4,1.3370000000000006
Na4Cr2C4SO16,1.3371
Mg2Mn2(SiO4)3,1.3374
K3W2Cl9,1.3375
Li3Mn5Cr3O16,1.3378
RbBiS2,1.339
YTe(WO4)2,1.3395
Tb3In5S12,1.3402000000000005
MgU(PbO3)2,1.3407
V2FeAgO7,1.3407999999999998
Tb(CuS)3,1.3410000000000002
Na2La4Ti4Si3(S3O16)3,1.3417
Tm2Se3,1.3417
MgVCuO4,1.3422000000000005
Y2AlN3,1.3426
Nd3Si(Mo2O7)2,1.3427999999999995
Rb2S3,1.3433000000000002
Li4V5O9F,1.3433000000000006
Rb7NaGe8,1.3438
TbBi2ClO4,1.3439000000000003
V2H2O5,1.344
Sr2DyMoO6,1.3440000000000003
SrLuCuS3,1.3441999999999998
NaSrHfBiO6,1.3445
Na2MoC3SeN3,1.3446000000000002
Nb2TlPS10,1.3449000000000004
TbFeO3,1.3449000000000004
Tb4Se3N2,1.3453
Ta3Tl2Cl9,1.3454000000000002
Li6Cr3Co(PO4)6,1.3459
Na3AlP2,1.346
LaMn4(BiO4)3,1.3461
ZnAgF3,1.3463
Sr(MgAs)2,1.3464000000000005
BaCaNb4O12,1.3465000000000005
Mg2SnSe4,1.3466
Li6NCl3,1.3467000000000002
Rb4P21I,1.3468
Ti(PS3)2,1.3472000000000002
Sr4Tl2CO9,1.3472999999999995
Na6Ti4Zn4Si3(S3O16)3,1.3474999999999997
Na2Zn(GeSe3)2,1.3476
CsRe6S8Br3,1.3477
CsCuPSe3,1.3477
Li4Ti3Mn2Sn3O16,1.348
Na3CoO2,1.3483
LuTlS2,1.3485000000000005
Rb3IO5,1.3488000000000002
TiV(PO4)3,1.3491
YTi2CdO6F,1.3491999999999995
Rb3MnO3,1.3497
Sb6O13,1.3498
Li4Ti2V3Co3O16,1.3499999999999996
Sr2CrSbO6,1.3499999999999996
Sr2GdMoO6,1.3501000000000003
Na6PbO4,1.3501000000000003
Sr4TiAs4,1.3504999999999998
Mg4(MoO4)3,1.3511000000000002
LiVFe(P2O7)2,1.3513
Nb6CdO16,1.3515
NaCa2Nb2P3(SO8)3,1.3519
TiMo(PO4)3,1.3522999999999998
UAg2P2H2CO8,1.3522999999999998
Sr5(GeN3)2,1.3525
Na2Nb2Ga6Si3(S3O16)3,1.3526000000000002
TlCuAs2PbS5,1.3528000000000002
ReSeS,1.3533999999999995
K2PdBr3Cl,1.3535
Ga2S3,1.3536
Na42Mg20Nb4Si15(S7O48)3,1.3539
Li9Mn5O12,1.3548
Sr(SbO3)2,1.3549000000000002
Li5V5(FeO6)2,1.355
Sm2MgV2O8,1.355
LiVF3,1.355
Ti(PCl6)4,1.3551
Ba2Ti5(Bi2O9)2,1.3552999999999995
NaAsS2,1.3553
Rb2FeH2Br5O,1.3559
RbYTe2,1.3562999999999996
RbNbO3,1.3563000000000005
Na2HF4,1.3565
ZnPdF6,1.3568
Na6Mg8Nb16Si15(S7O48)3,1.3568000000000002
Na6Sn2O7,1.3569999999999998
Sr(ScS2)2,1.3569999999999998
CaAgAsO4,1.3571999999999995
AlSb3Pb4O13,1.3571999999999995
KTlSe2,1.3576
Sr(DySe2)2,1.3579000000000003
Mg2SbN3,1.3582999999999998
RbBiF3,1.3584
NaGdSe2,1.3585
Ti(ZnN)4,1.3588999999999998
Rb2(ReS2)3,1.359
Th2SeN2,1.3591999999999995
Na2Si5Sn8S7O48,1.3598
MgHg8(W2O7)4,1.3598
NaNb2PS10,1.3602
NbCu3Se4,1.3604000000000005
SmZnPO,1.3609
SrCaCeNiO6,1.3610000000000002
NbBi4ClO8,1.3611
TaNb(AgO3)2,1.3613
Hg7(P2Br3)2,1.3616
Li3VO3F,1.3617
LiTiO4F3,1.3617
LiV2F7,1.3617
Na30Ca16Nb8Si15(S7O48)3,1.3618
Na10Co4O9,1.3618
Zn2SeS,1.3618
NaMgGeP(SO6)2,1.3626
Na2Ga2Se3,1.3626999999999998
YSi2Ag3O7,1.3627999999999998
Na2Y2Ta2Si3(SO8)3,1.3630000000000002
Rb2NaCrCl6,1.3631
Pr3CuSiSe7,1.3632999999999995
Li3Ti2Fe3O10,1.3634
RbMgCu2H3(SO5)2,1.3634000000000004
Na2Ca2Ti6Si3(S3O16)3,1.3636
NaCaZrBiO6,1.3637
LiVCoO4,1.3641
LiCrSnO4,1.3642000000000003
Rb6HgSe4,1.3644
PrZn(WO3)2,1.3645999999999998
Zn7(MoO4)6,1.3647
Li7Fe3(SiO6)2,1.3649999999999998
SiPbN2,1.3653000000000004
Na2Sc6Nb2Si3(S3O16)3,1.3654000000000002
Li4TiCr2Ni3(PO4)6,1.3658
SrMnV2(AgO4)2,1.366
TiFe5(PO4)6,1.366
NaTaZn3(SO4)6,1.3662999999999998
Na6TiZn3Si2(SO6)4,1.3663999999999998
SnHg6(As2Br3)2,1.3664
LiNiSbO4,1.3664
Ba(ErSe2)2,1.3665000000000005
Na7Co3O8,1.3666999999999998
SiC,1.3669000000000002
Na7Ca2SiSn2P5O24,1.367
Na2In2GeSe6,1.3672000000000002
Gd3AlZnS7,1.3672999999999995
Sn3TePb4O13,1.3676000000000004
Rb2MgFe4O7,1.3677
Li3Fe3(PO4)4,1.3678
AsSe,1.368
Na6MoN4,1.3685999999999998
Zn3Si4(SnO7)2,1.3686999999999996
LiFeSO4F,1.3691
Na14Ca4Nb4Si9(SO16)3,1.3691
VCd2N3,1.3697
TiNb2O7,1.3697999999999997
Cs2AgIrF6,1.3698
Li4V3(FeO5)2,1.3700000000000006
Sr2Sb2O7,1.3703999999999996
NaTiCu3Se4,1.3708000000000005
NaLi2FePCO7,1.3709
Nd4Se3N2,1.3709999999999996
Sb16Cl4O21,1.3710000000000004
Na3MoO4,1.3712
Sm3S3N,1.3713000000000002
Na2Mg5Ge3(SO4)12,1.3714
ErTlO2,1.3714999999999995
Na15Mo7N19,1.3721
Th6OF24,1.3722
Na4LaSi2GePO12,1.3723
Rb2Te,1.3724999999999998
Li6NiCl8,1.3726
Nb2PS10,1.3727
Cs2InSbCl6,1.3727000000000005
MgZn2FeWO6,1.3728000000000002
MgSiP2,1.372800000000001
Na2Si4NiO10,1.3731
Pr4Se3N2,1.3742
La5S4NO2,1.3743
Fe9(PO4)8,1.3746000000000005
KInSnSe4,1.3747000000000005
Li3Fe5(PO4)6,1.3752999999999995
Sb4Pb5S11,1.3758
TeAs(Se2F3)2,1.376
NaLa2In2PS5O24,1.3761
Na5SrTaP4,1.3769
MgBiSbO5,1.3769
NaRhO2,1.3773999999999995
Sm3ReO8,1.3776000000000002
Sr2YAlFe2O7,1.3778999999999997
TlGeCl3,1.3779
Rb2HgPSe5,1.3781
RbGaSnSe4,1.3781
Na2Mg3Ge(SO4)6,1.3783000000000003
LiCaN,1.3784999999999998
Mg7Mn5O12,1.3786999999999994
Li6NbFe5O12,1.3786999999999998
Rb2MgNb2(TeO6)2,1.3791000000000002
MgMn(GeO3)2,1.3796
Li6TiFe3(PO4)6,1.3799
Nb3ZnFe3(O6F)2,1.3799
Li3MnB8O15,1.3799
Sb2Te3(SeF4)3,1.38
Na3SmMn3(AsO5)3,1.3801
LiV(TeO4)3,1.3811000000000004
Ti3(BiO3)4,1.3813000000000004
Na6MgSi6Sn7(SO8)6,1.3814000000000002
Na2Ti8Si5S7O48,1.3817
TmTlS2,1.3817000000000004
Ag2PbO2,1.3818
MgAlCrS4,1.3818
Sm2MgS4,1.3820999999999994
Na2SrV2CoO8,1.3822
MgFe(GeO3)2,1.3822
Sb3Au(XeF9)2,1.3822
Nd10Se14O,1.3835000000000002
YBi2IO4,1.3836000000000004
Zn3CdGa2(AgS4)2,1.3837000000000002
LiV3F10,1.3838
V2CoO6,1.3839
Li4V3(OF2)4,1.384
InHg6As4Cl7,1.3842
SNClO4,1.3845
TlBi(PSe3)2,1.3847
LiInTe2,1.3847
ZnGeO3,1.3848999999999996
SbCl4F,1.385
Hg3(TeI)2,1.3859
Ba(CuO)2,1.3863
Sr7TiN6,1.3865999999999996
U3Ag6Mo5O27,1.3867000000000005
Na2MgTiSi(SO6)2,1.3868
Zn2GeSe4,1.3873
Sr2MgCuMoO6,1.3873000000000002
Mg2BiSbO6,1.3876
Na8Mg(FeO4)2,1.3877000000000002
LiMg6WO8,1.3883
ZrCrO3,1.3886000000000005
Na8Ca3Si3Ge(SO8)3,1.3888000000000005
GaSb3Pb4O13,1.3889999999999991
Li3SbS3,1.3892999999999998
Tb2Pt2O7,1.3893
MgV4(FeO6)2,1.3899
LiLaNb2O7,1.39
NbFeNi(O2F)2,1.3901
Li4V3Cr3(SbO8)2,1.3902
Rb2AgRhF6,1.3904999999999998
ZnNi9O10,1.3909000000000002
UAg2(SeO4)2,1.3916
Li4Ti3Ni3(TeO8)2,1.3917000000000002
CaMg30SnO32,1.3921
Na3CaNbSi2SO12,1.3921
LiB6C,1.3922
BaNa4O3,1.3922
Rb5Tc3S7,1.3927999999999998
Ti4S8Br6O,1.393
Na5Zn2Ge2P5SO24,1.3936
KMn6As7O24,1.3939
Mg30MnSnO32,1.394000000000001
K4Nb2S11,1.3942
MgTi4FeO10,1.3943
Y4Se3N2,1.3943000000000003
Ba2In2Se5,1.3945
NbCu3(TeSe)2,1.3948999999999998
K6U4O15,1.3949000000000005
Nd7V(Se2O)4,1.3952
NaLiMn2Fe4(PO4)6,1.3958
NaP5,1.3958000000000004
TiFeSbO6,1.3958999999999993
AgSe3I,1.3964
NdTi2CdO6F,1.3965999999999998
Sr2PbO4,1.3966000000000005
Na4ZnSi2SnSO12,1.3967
ZnHgAsHO5,1.3969
LiMn2CoO6,1.3976000000000002
Na2MnFeF7,1.3979
KCrF6,1.398
Sb2MoO6,1.3984
LuBi2BrO4,1.3984000000000003
Sr3Li3Cu3(PO4)4,1.3985
YCrO3,1.3989000000000005
TiMn5O12,1.3989999999999998
LiCu2P3(HO5)2,1.3990000000000005
Na10Zn2Si7Ge6S5O48,1.3990999999999998
MgV2(OF2)2,1.3992
Rb3Ta2S11,1.3994
PRhS,1.3994000000000009
Tb2VFeO6,1.3995000000000006
Zn(GaSe2)2,1.4000999999999997
Ta2Si3Sn2(SO8)3,1.4001
Sb2SeI2F11,1.4002
Ga7Sb7(Te4Cl13)2,1.4002
La2Nb2N2O5,1.4008000000000005
Na8Mg3Si3Ge(SO8)3,1.4009999999999998
V(HO)2,1.4013000000000004
ReH3O5,1.4014
SbPb2S2I3,1.4018999999999997
Na24Nb2Zn10Si9(SO8)9,1.4019
Ba2CdTe3,1.402
MgV2CdO6,1.4023
Mn2Bi2O5,1.4025
LiCrPO4F,1.4027
Ta2Si3Ge2(SO8)3,1.4027
YZnCu3Se4,1.4027000000000005
VAg(IO4)2,1.4028999999999998
Na5NpO6,1.4031
Na2PH6(SeO)3,1.4031000000000002
Na2La4In4SiS11O48,1.4031999999999998
SbSe(IF2)3,1.4032
Na2CoAgF6,1.4033
Na8Mg3Ge(PO4)6,1.4038999999999997
Te6RuBr8,1.4039
Na6Zr4Ti4Si7S5O48,1.404
Te7IrCl7,1.4044
Ba3Gd2(PS4)4,1.4044
Y2MgV2O7,1.4045
S3(NO7)2,1.405
Nd2ThS5,1.4051999999999998
Na10Mg4Ti4Si5S7O48,1.4052
AlMo(WO4)2,1.4055999999999995
Tl2Sn2S5,1.4057
NaCoBO3,1.4057
ZnSnAs2O7,1.4058000000000002
BaNd2CoO5,1.4058999999999997
Sr5(SiN3)2,1.4059999999999997
Pr2ThS5,1.4063
K2Sn2S5,1.4063
VPH6C2N3O7,1.4065
V(WO4)2,1.4066
MgMo3P3O13,1.4068999999999998
Na3Sc2(MoO4)3,1.4068999999999998
UV2O8,1.4074
LiZn2CrO4,1.4076
SiB3,1.4080000000000004
Sr(ErSe2)2,1.4083
Mn(AsO3)2,1.4084
ZnCoAs2O7,1.4092
Tb3S3N,1.4093999999999998
Rb2AlAuF6,1.4095
Na4Sn5O12,1.4095999999999995
Na2Si5Ge8S7O48,1.4097000000000002
Mg3Fe4O7,1.4099000000000004
MnH8(NO5)2,1.41
KRb2TlBr6,1.41
SrTh2Se5,1.4103000000000003
Li5Fe6P5O24,1.4103999999999997
Nb(SBr)2,1.4107000000000005
LiCu(HO)4,1.4109
MgV4CoNiO12,1.4109000000000005
ErTlS2,1.4109000000000005
NaMgV2Bi3O10,1.4116
Se5SO3F,1.4116
VAsO4,1.4117000000000002
Ti2AgBiO6,1.412
Ba2GeSe4,1.4121
Rb2Zn3O4,1.4122
BaFeO4,1.4123
LaMgMnFeO6,1.4124
Na8Co2O7,1.4124
Fe3(SiO4)2,1.4125
Tl2Ge2Se5,1.4126
NiH12(ClO3)2,1.4126
Na5AsO5,1.4127000000000005
NiH12(NO6)2,1.4128999999999998
Sr3MgGeN4,1.4132000000000002
La12Si4SnS28,1.413200000000001
MgCr2(AgO4)2,1.4135
LiIrO2,1.4139999999999997
K2Sm2Mg(MoO4)4,1.4144000000000003
Na2Fe4O7,1.4146
ZnS2,1.4156000000000004
Zn2Ge5N8,1.4157000000000002
VGaO3,1.4157000000000002
Sc4S3N2,1.4158999999999995
Nd3U(ClO2)3,1.4161
Re4Xe3(O5F7)2,1.4162
Mg30MnSiO32,1.4162
RbCrF6,1.4164
Ba4NaAuO8,1.4166
NaFeO2,1.4166
Tl3Ag3(SbS3)2,1.4166999999999996
Mg3(GaN2)2,1.4168000000000005
Tm2Sb2O7,1.4172000000000002
Na2NdCuCl6,1.4175999999999995
Na8Ca3Ti(PO4)6,1.4178
Na3MnS2(O4F)2,1.418
Mg2MnSbO6,1.4181
Tl8Sb21As19(PbS17)4,1.4184
LiCrP2S7,1.4187000000000003
NaLa2Ge2P3(SO8)3,1.4188
TeAs(SeF3)2,1.4188
LiCr(FeO2)4,1.4189999999999996
Ti4Zn3SnO12,1.4189999999999996
MgCrPO5,1.4192
Mn2CrSbO6,1.4196
CaGe2WO6,1.4198999999999995
NaPrInSbO6,1.4201000000000006
UCd(PbO3)2,1.4201000000000006
YTi3F15,1.4202
CsLaZr6CCl18,1.4204
Li4CrFe2Ni3(PO4)6,1.4206
SiPb7(ClO4)2,1.4207999999999998
TbCoO3,1.4208999999999996
Te2PdCl10,1.4212
Sr2Li2Nb4O13,1.4216
Pr10Se14O,1.4217999999999995
ZnNiF4,1.422
Na2CoGeO4,1.422
Tl3BS3,1.4222
Na5La3Ge(PO4)6,1.4223
KBi3S5,1.4227
La5AgSe8,1.4229000000000005
SbPbBrO2,1.423
Rb4P2Se9,1.4230999999999998
Pr3U(ClO2)3,1.4230999999999998
MgMoO3,1.4230999999999998
Rb3As7,1.4234
Lu2Sb2O7,1.4236000000000004
V2(SO4)3,1.4238
Li5Mn3Cu(PO4)4,1.4238
TaNb(Cu3Se4)2,1.424
RbIn3O5,1.4240000000000004
Th2SN2,1.4240000000000004
SbTe(SeF3)2,1.4242
Li8Sb2S,1.4242
Mn(Ni3O4)2,1.4245
V2AsO6,1.4248000000000005
Na6Nb3In5Si6(SO8)6,1.4248999999999998
ZnCrPO5,1.4255000000000004
Pr2Se3,1.4255999999999998
Ti(CuS)4,1.4256000000000002
TmBi2IO4,1.4258999999999995
ReHg2O5,1.4261
HoTlO2,1.4262
TlAuF6,1.4262
TlIn(PSe3)2,1.4263000000000003
RbAu(SeO4)2,1.4267
OsSeS3Cl4,1.4276
CsBi3S5,1.4278999999999995
Na3As7,1.428
Na2Hf4Ti4Si5S7O48,1.4280000000000002
Mg4Co5(TeO6)3,1.4281999999999997
RbAuO,1.4283
Ca2TaMoO6,1.4283
K3Rb3Zn4Sn3Se13,1.4283
Ti3N2O3,1.4284000000000003
Nd2Se3,1.4284999999999997
Zn2CrWO6,1.4293999999999998
Tl2(SeO4)3,1.4303
TlPt3O4,1.4306
Tl2(ReS2)3,1.4307000000000007
Na3LaSiGe(PO6)2,1.4308
MgBi2(SbO4)2,1.431
Sr(LuSe2)2,1.431
TlSb5S8,1.4316000000000004
Al2Fe3(PO5)3,1.4326
Cs4Zr3S14,1.4329000000000005
Na6Li3Fe6(PO4)8,1.4336
TiZn2O4,1.4336000000000002
KUCrO6,1.4337999999999995
Na6Ca4Ta4Si5S7O48,1.4338
Si4P4Os,1.4341
Ba(SmSe2)2,1.4344
LaCuPbS3,1.4345
NaNb2Zn2P3(SO8)3,1.4347
MgV2Ni(TeO5)2,1.4347000000000003
LiMg30MnO32,1.4352
RbFe5O8,1.4357
Li3Mo2P5O18,1.4358000000000002
Tm9B5S21,1.4360999999999997
Hg2SeO4,1.4363
Cu2SO4,1.4363999999999997
ZnNiMoP2O9,1.4364999999999997
MgMnGeO4,1.4371
Li7Mn2Fe6(PO4)8,1.4371
Sm3CuSiSe7,1.4373999999999998
SbSeBr,1.4377999999999995
AgNO2,1.4382
Cd4SiS6,1.4382
Ca(ErS2)2,1.4382999999999997
NaV2P2O9,1.4384
Rb14Si10O17,1.4386
Pr5C2Br9,1.4388999999999998
Na5CoO4,1.4389
Mg4B8H31,1.439
Li5Fe3(SnO5)2,1.4391000000000007
Tl2CuAsO4,1.4394
RbBSe3,1.4394
Na2Zn2Se3,1.4395
TbVO3,1.4395999999999995
Li6CrN4,1.4398
Na3MnBAsO7,1.4399
MgFeCoO4,1.4403
Rb5Ta(TlAs2)2,1.4405
Th3N4,1.4415000000000004
LiCa3As2H,1.4416999999999995
Na5CuCO5,1.4416999999999998
Na2(ReS2)3,1.4417
Na8Mg3TiSi3(SO8)3,1.4419999999999995
Ag6SbAsS6,1.4419999999999995
Re3Se4Br,1.4421000000000004
Mg2TiWO6,1.4421999999999997
Co10Ge3O16,1.4422999999999997
Na4NpH7O9,1.4425
LuBi2IO4,1.4425
Na14Ni2O9,1.4427
Na2VO3,1.4427000000000003
Fe5P4(H3O10)2,1.4431000000000005
Sr(TbSe2)2,1.4432
NbP4Se3Cl5,1.4437
Na2Zn3Se4,1.444
Sr4Re2NiO12,1.444
MnHg3F6,1.4447
Na2Ti2Si3Ge2(SO8)3,1.4447
Mn3Co3(TeO6)2,1.4449999999999998
Ba2Ti6N2O11,1.4450000000000005
Na10Mg3Si6Sn5(SO8)6,1.4453
LiMnPHO5,1.4454
Y5C2I9,1.4454000000000002
Sr(AlTe2)2,1.4454000000000002
LiTb4Al2(FeO6)2,1.4455
Zn4As2O9,1.4459
Zr6FeCl14,1.446
Nd3SiAgSe7,1.4465
TbSi4B18C,1.4466
Mg3Cr3(AsO4)4,1.4471000000000005
ErCoO3,1.4471000000000005
Na42Mg16Ta8Si21(S5O48)3,1.4472
Na42Ca20Nb4Si15(S7O48)3,1.4472999999999998
Zr2H12(N2O7)5,1.4476
LiTi2V3O10,1.4482999999999997
Fe5SiO8,1.4485
MnVHPbO5,1.4488999999999996
Zn2Hg2H2Se2O11,1.4492
Na2Ti4Si5Sn4S7O48,1.4492
SbOF3,1.4495
TlSbAs2PbS6,1.4503
Rb2Sn3O7,1.4505999999999997
Ba2FeBrO3,1.4511000000000005
Rb9Al(HO2)4,1.4514
Rb2In4O7,1.4515999999999996
SiAs,1.4518999999999995
NaHgPO4,1.4524
V4P2O13,1.4524000000000004
Na2La3Nb5Si6(SO8)6,1.4526
Cs2KMoI6,1.4527
MgV2(SiO4)3,1.4533
K4Sn3Se8,1.4545
MgMnAs2O7,1.4546
MoCl4O,1.4552
Zn4CdS5,1.4555000000000002
La2MgMoO6,1.4558999999999995
PdPb2Se2(ClO3)2,1.456
LiMg14SbO16,1.4560000000000004
MgTiV(PO4)3,1.4562
Mn3V6(FeO6)4,1.4562000000000002
BaLa2ZnS5,1.4565
Na2ZnO2,1.4567
Na3NbZnSi2SO12,1.4585
Li4Ti9O20,1.4587
BaNp(HO2)3,1.4587
Sr(YSe2)2,1.4587000000000003
Nd2PbSe4,1.4589999999999996
KNb(AgSe2)2,1.459
MgB7,1.4592
VAg3HgO4,1.4596999999999998
Na2Li3CoO4,1.4597
RbMg30SbO32,1.4597999999999995
MnCo2TeO6,1.4605000000000006
Na9Nb7Zn5Si9(SO8)9,1.4606
Co2Hg2H2S2O11,1.4606
YW3O8,1.4606000000000003
Mn3Al2F15,1.4607
Na7TaZn3Si3(SO8)3,1.4611
Na3LaMn3(AsO5)3,1.4613
LuHSe,1.4615
Li4TiV4(Fe2O9)2,1.4623
Na6Ti4Ga4Si5S7O48,1.4623999999999997
NbCu3(SeS)2,1.4624
Sr9Fe(PO4)7,1.4627
ThPbI6,1.4630000000000003
Na2PtO2,1.4632999999999998
Na2Ti4Zn4SiS11O48,1.4635000000000002
SrMnSnWO6,1.4639000000000006
LiFe5(OF2)4,1.4643000000000002
TiBi8W(BrO8)2,1.4646999999999997
Sr4PdO6,1.4647
Na4SnSe4,1.4647
Sm7V(Se2O)4,1.4652000000000005
Na2Si5Sn4Ge4S7O48,1.4655
Dy2MgV2O7,1.4659999999999995
Na42Nb4Zn20Si15(S7O48)3,1.466
Na6MnNi3(SbO6)2,1.4660000000000002
MgAlCu(WO4)2,1.4665999999999997
Mn5SnO12,1.4668
Sr5(SnN3)2,1.4672
SrLi2Nb2O7,1.4673
Li4Ti4VCr4O18,1.4674
Sr2Fe2S2OF2,1.4676999999999998
MgFe4CoO8,1.4676999999999998
MgFe2BO5,1.4680000000000004
Mo(BrO)2,1.4684
Li5Fe4(Si3O10)2,1.4691999999999998
Rb3As11,1.4693
Li5V3Cu(PO4)4,1.4693000000000005
Na3Zn2(MoO4)3,1.4695999999999998
Na3LaTi2Nb2O12,1.4699