formula,band_gap
Na4MgGa(PO4)3,3.720800000000001
Sm2Hf2O7,3.7211
La2HfO5,3.7213
K2Sc2P2WO12,3.7218
TeP4H26(NO5)4,3.722
Na4Zn2P2SO12,3.7225
Na7Sc2In2SiP5O24,3.7229
CsMgSb(PO4)2,3.723
Na5Nd4Ge4O16F,3.7234
LiLa2SbO6,3.7234
SrAl2SiN2O3,3.7236
NaCa2Hf2PS5O24,3.7238
Na4AlGaSi2SO12,3.7239
SrCaZrSnO6,3.724
Li2Si3Ni3O10,3.7241
KLaCO4,3.7242
Ca4Al6SO12,3.7247
Na5La2Zr2SiP5O24,3.7253
K2ThO3,3.7257
Ba2Ti(SiO4)2,3.7274
CaH16(IO4)2,3.7278
Cs3La(MoO4)3,3.7278
Mg3Fe3(PO4)4,3.728
Rb2ZnN12,3.7282
ZnC2(SN)2,3.7288
Na3LaZn3(SO4)6,3.729
ErPH5CO7,3.7291
Rb2SmAgCl6,3.7291
Rb2ErAgCl6,3.7293
TlB3O5,3.7297
Cs2LiAsO4,3.7302
Na3YCl6,3.7304
BaSi3SnO9,3.7306
RbIn(MoO4)2,3.7308
NdPH5CO7,3.7309
K3I2Br,3.731
ZnSbF5,3.7324
H3N,3.7337
Ca2ScTaO6,3.7338
Na2Ge(S2O7)3,3.7341
K2RbTlF6,3.7342
Rb2NaBiCl6,3.7342
Na7Mg3ZrP5SO24,3.7343
SrHo2O4,3.7343
Na3Cd4P6H10(ClO8)3,3.7344
Rb2NiF4,3.7349
NaH2(SO2)2,3.7351
NaNi4(PO4)3,3.7352
Na3YMgSi(SO6)2,3.7357999999999993
ZnSi4H36(C6N)2,3.7359
Li6Fe(SiO4)2,3.7361
Mg30ZnNiO32,3.7369
Na3Hf2Ta2Si3(PO8)3,3.7369
LiTlPHO3,3.7372
Na14Zr3Zn5(PO4)12,3.7382
Na6Ca3ZrP4(SO12)2,3.7386
ZrInP(SO6)2,3.7386
SnH10C3NCl3,3.7386
Lu6Ge4O17,3.7402
NdAsO4,3.7403
RbAsOF4,3.7404
LuZr6(PO4)9,3.7405
Sr10Al6O19,3.7407
Li6Ge2O7,3.741
Dy3Se4O12F,3.7411
K2LiScCl6,3.7414
K2InSi4HO11,3.741400000000001
Rb5ErHf(MoO4)6,3.7417
NaHf2Zr2P5SO24,3.742
SrCd2H16(Cl3O4)2,3.742
Na14Hf4Al4Si9(SO16)3,3.7421
MgWF6,3.7421
Na2LiScCl6,3.7427
BaZnCrF7,3.7429
MgSi2NiO6,3.743
Na4HfZn3P2(SO6)4,3.7436
PrPH5CO7,3.744
Sm2O3,3.7443
NaInP2O7,3.7446
Li2CO3,3.7449
SrGaBO4,3.7452
NaZr2(AsO4)3,3.7453
Sc2Si2O7,3.7458
NaLaMg30O32,3.7461
Si2H6Se,3.7464
MgH16(IO4)2,3.7464
Tb5Se2Cl3O10,3.7466
Sr4HfO6,3.7468
SbTe(ClF2)3,3.747
SrMgMn(PO4)2,3.747100000000001
CsAsOF4,3.747100000000001
Ca10P6SeO24,3.7475
SbCl3,3.7476
Rb3I2Br,3.747900000000001
Rb2MnH12(SO7)2,3.7482
BaSrHf2O6,3.7482
Na5Ca2Zn2PS5O24,3.7484
Na4HfGaSi2PO12,3.749
Na7Y2Ga2SiP5O24,3.7492
Na3NO4,3.7504
PC2N3Cl4,3.7505
AlBiCl6,3.7506
K2TlMoF6,3.7506
Na7La4SiP5O24,3.7515
Ba5B3ClO9,3.7516
YH3(CO2)3,3.7518
TeP2H16N2O13,3.7525
Zr4Cd(PO4)6,3.7527
TaSn(PO4)3,3.7529
Na10Hf4Sc4Si7S5O48,3.7531
Zr2Sc2SiS5O24,3.7533
Rb2LiScCl6,3.7539
Na3ZrGaSi(PO6)2,3.7539
RbSbBrF3,3.7548
ErAlGeO5,3.7548
MnP2(H4O5)2,3.755
K3TmSi2O7,3.755500000000001
Ba3B(BrO)3,3.7561
MgCN2,3.7571
Na5Sc2In2P5SO24,3.7573
Na14La4Hf4Si9(SO16)3,3.758
Li4Fe(BO3)2,3.7585
P3CN4Cl7,3.7593
Rb2In3F11,3.7593
Sm27Y5O48,3.7595
Sn2H2SO5F2,3.7596
MnPH4O5F,3.76
Li3Sn(BO2)5,3.761
Ta2Si(PO6)2,3.7612
Na3ScZnSi(SO6)2,3.7613
ZrTa(PO4)3,3.7614
Na14Al8Si7S5O48,3.7616
Na3MgScSi(SO6)2,3.762000000000001
K3NiPCO7,3.7622
Na4Sc2Zn2SiS5O24,3.7624
ZrH36C16(NO4)4,3.7627
Sr2VClO4,3.7633
Sr5V3O12F,3.7635
SrMoO4,3.7636
KNa2CrF6,3.7636
KSn4(PO4)3,3.7643
NaZn2HSe2O7,3.7644
KMnP2H5O9,3.765
SiPN3,3.7652
Na6Mg2C4SO16,3.7658
ZnSi4H35C13ClO,3.7664
SrEr2O4,3.7665
Na2TlCrF6,3.7667
SrICl,3.7669
Re2PbO8,3.7671
Li2Ge(S2O7)3,3.7676
Na6Be8O11,3.7677
Ba3La2Cl12,3.768
Na5ZrTa3(SiO4)6,3.7680000000000007
Na2MgSiO4,3.7685
Na3NbO4,3.7689
Cs4MgZr3(PO4)6,3.7689
Mn3B7BrO13,3.769
LiSc(TlCl3)2,3.7703
ZrBr4,3.7707
Mg3(HO2)2,3.7709
MgFe(Si2O5)2,3.771
Na8Hf3ZnSi4(PO12)2,3.7712
Na4LaAlSi(PO6)2,3.7713
Na4LaYSi(PO6)2,3.771500000000001
Na5HfTa3(SiO4)6,3.771900000000001
Nd2C(NO)2,3.7725
TbMoO4F,3.7732
LiTm(WO4)2,3.7741
Zn2H16C4N18O7,3.7746
Na3ScSi2O7,3.7748
Ca4Ta2O9,3.7748
SbMoOF9,3.775
LiTb(WO4)2,3.7751
K2LiIn(MoO4)3,3.7751
Na2AlInP2SO12,3.7753
MnAl2P2(HO)18,3.7756
HgH16C6(N2Cl)2,3.7758
Li7Mo4P9O32,3.7758
Rb3LiZn2(MoO4)4,3.7764
RbBa2I5,3.7766
LiY(CN2)2,3.7769
KLi4NbO5,3.777
LiY(WO4)2,3.7774
Zn2NiP2(H2O3)4,3.7775
Na7Ca3ZrP5SO24,3.7777
SnP4H8N2O13,3.7786
Na2YZnP(SO6)2,3.7791
Na7CaSc3Si3(SO8)3,3.7794
K2CdP2O7,3.7795
BaSrTm4O8,3.7798
K2Na2Nd4Nb2O13,3.78
Na4Zr3Zn(PO4)6,3.7811
Na2GaPCO7,3.7817
NaHfGaP2SO12,3.7822
Na3CaAl3Si3SO16,3.7823
CsNa3Li12(GeO4)4,3.7823
LiCa9Co(PO4)7,3.7824
NaYHfSi(SO6)2,3.7828
Na5Y3Zr(PO4)6,3.7829
Na4Al2Zn2SiS5O24,3.783
Ga2(TeO3)3,3.7831
LiMnGaF6,3.7836
SmH4I3O11,3.784
LiAsH6(OF2)3,3.7843
Na3HfInSi(PO6)2,3.7849
P2SN3Cl5O,3.7852
Y2Mg3(SiO4)3,3.7854
MgMoF5,3.7858
NaH2C2N3O,3.7863
Na2LaZr(PO4)3,3.7863
LiDy(WO4)2,3.7868
Na4Ga2Si(PO6)2,3.787100000000001
CaZn2(PO4)2,3.7872
Na5Y2Zr2SiP5O24,3.7881
Dy3BWO9,3.7886
MgSiO3,3.7886
Li2SnCSO7,3.7891
RbLa(WO4)2,3.7897
Na3La2(BO3)3,3.7902
NaSr2CrF8,3.7906
RbH5C7SO5,3.7907
LiHo(WO4)2,3.7911
Sr2TaInO6,3.7911000000000006
Sr3Sc2(GeO4)3,3.7912
Ba5B4O11,3.7917
Na5MgZr3SiP5O24,3.7917
NaLa2Hf2P3(SO8)3,3.792
Na3ZrTa(SiO4)3,3.792
Mg3Al12FeSi4(BO9)4,3.7922
Sr5V3BrO12,3.7925
LiMnP2HO7,3.7928
CaAs2(HO2)4,3.7934
LiZr2(PO4)3,3.7937
Nd7Se4Cl3O17,3.7944
NaNdMgWO6,3.7945
La3BWO9,3.7948
Zn3H12C9O13,3.7954
LiEr(WO4)2,3.7954
MnH8SO8,3.7956
TbCl3,3.7966
Sc3B5O12,3.7969
Na3ZrNi(PO4)3,3.7976
Mg(AlH4)2,3.798
Na4YAlSi2SO12,3.7983
Na2ZrGa(PO4)3,3.7985
LaAsO4,3.7988
LiMnP3(HO5)2,3.7991
LiCdFeF6,3.7992
SbCSCl2F9,3.8
Mg3BH2O5F,3.8004
LiLu(WO4)2,3.8008000000000006
Na4MgZrSi(PO6)2,3.8014
LiPN2,3.8016
ScIn(SO4)3,3.8018
SrI2,3.802
PHF2,3.8024
MnH2(SO4)2,3.804
Na2MgZrP2SO12,3.8046
CsY3O5,3.8051
RbNa5Be8O11,3.8053
Na3AsF6,3.8054
Sb2F7,3.8056
NaSbCSO7,3.8056
Zr3SO9,3.8071
Tl2Ni2(MoO4)3,3.8078
Pr3BWO9,3.8078
RbCd(BO2)3,3.8078
NaLa9(Ge3O13)2,3.808
Ca2AsClO4,3.8089
Li2FeH8(SO6)2,3.8099
Rb2Ge(S2O7)3,3.8101
NaLiMnP2O7,3.8104
Na8Si6SnO18,3.8106
Na2BHO3,3.8106
Na3ZnPCO7,3.8113
NaScCl4,3.8115
RbInP2O7,3.8119
LiMnP2H5O9,3.812
Na7MgSc3Si3(SO8)3,3.8121
K2RbCO3F,3.8124
MoOF4,3.8125
BaNaSc(BO3)2,3.8128
Na7Zn4P3(SO8)3,3.8129
SrGe2(BO4)2,3.8131
MgTa2Zn2O8,3.8137
Ga2NiP3H8NO14,3.814200000000001
NaAsH4O5,3.815
Ba3Y(BO3)3,3.8153
SrTm2O4,3.8156
LiYGeO4,3.817
Li3Sn2P5O16,3.8177
Na3P6N11,3.817800000000001
Na3HfTa(SiO4)3,3.8179
Na7Zr3ZnSi3(PO8)3,3.8181
MgH12SeO10,3.8185
Ca2H26I4O13,3.8187
Na2LaPCO7,3.8187000000000006
Li5Ni2(PO4)3,3.8191
Li2MnCSO7,3.8192
Na4ScGaSi(PO6)2,3.8192
CeP3H8O7,3.8196
Mg(BH4)2,3.8202
Ca3MgFe2(CO3)6,3.8204
Na2Zr4As3(PO8)3,3.8206
YAlGeO5,3.8211
Na4MgZr3(PO4)6,3.8216
Li2Si6Ni2O15,3.8219
ZnSO4,3.8233
Al4CO4,3.8233
FeH14C4NOF4,3.8233
Na4LaScSi(PO6)2,3.8235
RbInBP2HO9,3.8236
Ba3Ho(BO3)3,3.8238
Na2HSNO3,3.8238
Mo2H26C8N2O5F6,3.8239
SnH4(ClO)2,3.8242
ZnCrH15N5Cl4F,3.8246
Rb18Mg6B29O58F,3.8247
SrCaFe(PO4)2,3.8248
Nd3BWO9,3.8249
Na4Li5(BO3)3,3.8255
Na3Ca2Zr2P3(SO8)3,3.8256
Sr2YTaO6,3.8258
Cs2PrAgCl6,3.826
TiH12N2(O2F3)2,3.8263
SnH3NF3,3.8263
Na21ZnS10Cl3O40,3.8271
Na5HfAl3Si3(SO8)3,3.8273
LiBi4P7O24,3.8273
RbNi4(PO4)3,3.8278
Sr5As3ClO12,3.828500000000001
Na3AlIn(PO4)3,3.8286
NaH9O5,3.8286
Na2Cd(SO4)2,3.8287
LaBWO6,3.8287
RbScAsO4F,3.8288
SrTe(HO2)2,3.8288
Na2CaHf3P4(SO12)2,3.8291
K2Si3SnO9,3.8296
Na2Ga2P2SO12,3.8297
Mg5Sn(BO5)2,3.8299
K2AlTlCl6,3.8301
SrNd2BeO5,3.8313
Na3MgAlSi(SO6)2,3.8314
BaYCl5,3.8317
Na3YZnP2SO12,3.8317
WS2O9,3.8323
SrNd10Se12(Cl2O9)4,3.833
NaAlSiO4,3.8331
K2SbPCO7,3.8333
NaZnPO4,3.8335
Li2Ta2(OF2)3,3.8336
Na7Al2In2SiP5O24,3.8339
MnH10CNCl3O2,3.8341
SmMoO4F,3.8342
K3HRhC5N5O,3.8356
Na4ScIn3(SiO3)8,3.8362
Rb3Sc2(AsO4)3,3.8362
NaH3CN2O,3.8365
ThPO5,3.8365
Rb3LaBr6,3.8366
Li6Zr2O7,3.837
Ba6YBr15,3.8383
Na5Y2Zn2P3(SO8)3,3.839
LaHO2,3.839
NaCaSc(SO4)3,3.8391
CaHCl,3.8394
Na4Sr(SiO3)3,3.839700000000001
Zr2Ga(PO4)3,3.8398
Li3Ni(BO2)5,3.841
KCd(BH4)3,3.8412
LiYMg14O16,3.8415
BaZnMoF7,3.842200000000001
Na4CaZnP2SO12,3.8425
CaSm2O4,3.8425
LiMg14BO16,3.8428999999999993
SiBr3,3.8434
Rb2ScInF6,3.8447
K2SnH2OF6,3.8447
KInP2O7,3.844700000000001
Rb2GeB4O9,3.8449
Sc(IO3)3,3.8452
LuCl3,3.8453
CsBO2,3.8457
ZnH10C2S3(N3O2)2,3.8465
NaNiP2HO7,3.8466999999999993
Na3Zn4P4H4NO16,3.8467
Li2MgH4,3.8467
Cs2NaLaBr6,3.8471
MgH18I2O9,3.8473
Sn2H12C4Cl2O,3.8473
SrSn2H10Cl6O5,3.8478
NaSb3(PO5)2,3.8478
Na2CrNiF7,3.8487
Na2BeGeO4,3.8493
Ta2Si2SO12,3.8496
K3TaF8,3.8497
ScGa(SO4)3,3.8499
Na4YHfSi2PO12,3.8502
Rb2Bi3F11,3.8503
Rb2Li2SiO4,3.8516
Cs3BiCl6,3.8517
FeH4(ClO)2,3.8519
NiBiPO5,3.8528
Cs2Li2SiO4,3.8531
NaZr2(PO4)3,3.8533
Sr3TaGa3(SiO7)2,3.8538
LiCSN,3.854200000000001
NaZrInP2SO12,3.8543
Na3MgC2BrO6,3.8547
Li4Be3As3BrO12,3.8547
Sr2HoTaO6,3.8552
RbLaSi(CN2)4,3.8555
P2Pb4SO12,3.8556
KRb2TlF6,3.8557
Na6La8Si3(S3O16)3,3.8558
Li5FeF8,3.8558
GaCl2,3.8564
Na4Ni3P4O15,3.8566
Cs2ZrO3,3.8566
Na5La(MoO4)4,3.8566
MgP8(WO12)2,3.857
Na6ZrZn3P4(SO12)2,3.857
Na3LaHfSi2SO12,3.8575
Na6Y4Al4Si3(S3O16)3,3.858000000000001
Na3Li3Cr2F12,3.8583
AlPNCl5,3.8585
Ba2ZnCuSb2F14,3.8586
B5H11N2,3.8593
RbMoP2O7,3.8594
Ba3Er(BO3)3,3.8599
Sm11Y5O24,3.8606
Sr7(H6Cl)2,3.8615
Li4Ni(PO3)6,3.8621
InP2H6NO8,3.862200000000001
Cs2AsH3SeO8,3.8623
TbCO3,3.8624
LiH4SeNO4,3.8634
GaBO3,3.8639
NaH8SeNO6,3.8639
ZnBiF5,3.864
SmH3(CO2)3,3.8642
La9ErO15,3.8646
HNO3,3.8657
Na2SiO3,3.8657
Na3Ca3Sc(SO4)6,3.866
La2Be2GeO7,3.8664
Ni3P2(HO)16,3.8665
Zn3H14C10O13,3.8669
ZnH12C3S4(N3O2)2,3.8674
K2Ge3(BO5)2,3.8683
LiMo(PO3)4,3.8685
Ca5V3O12F,3.868500000000001
NaHf2Al2P3(SO8)3,3.869
Na3B5SO8,3.8692
Na7Hf2Zn2SiP5O24,3.87
Rb3YBr6,3.8703
Na3Ga2(PO4)3,3.8708
NaZrAlSi(SO6)2,3.8715
ScH6N2Cl3,3.8715
RbCO3,3.8719
Zr2Si(SO6)2,3.872
ScCl3,3.8723
Rb5NdHf(MoO4)6,3.8724
NaLi2BO3,3.8727
SbAsF8,3.8741
K2AlInF6,3.8745
Na6Y4Zn4SiS11O48,3.8746
NaBH8O7,3.8757
Mg2Tl2(MoO4)3,3.8757
Nd3Al3Si3(NO6)2,3.8758
Zn(H4N5)2,3.8777
Na3Sb(PO4)2,3.8778
P2H4PbO4,3.8794
Li7La3(SnO6)2,3.8804
Na2Be(SiO3)2,3.8804
MnH10SO9,3.8814
K3La(AsO4)2,3.8821
ZnH14C2(N2Cl)4,3.8822
ZnCl2,3.882800000000001
Na3SiH5O6,3.8851
Na7Ca2Hf2SiP5O24,3.8854
Na5Er(MoO4)4,3.8857
MgMoH2O5,3.8857
Nd2GeO5,3.8858
Zr2P2O9,3.886200000000001
Na8Al6Si6SO28,3.8865
Na6La4Al4Si3(S3O16)3,3.8866
Na10Mg4Zn4SiS11O48,3.886600000000001
Na5ZrSc3(PO4)6,3.8871
Mg2Zr5O12,3.8874
CsZnPO4,3.8875
Na2Si2O5,3.8876
Na3Zr2Ga2P5SO24,3.8878
Na3PO4,3.8884
P5H5N6(Cl4O)2,3.8886
NaLi2AsO4,3.8891
BeH8(IO5)2,3.8892
Na6Zr7Zn(PO4)12,3.8894
K2Th(AsO4)2,3.8901
Sb2IF15,3.8902
Na3NdCl6,3.8903
RbInH8(SO6)2,3.8905
Na3PrCl6,3.8907
MgSnF4,3.8915
KZrPCO7,3.8916
NaTbO2,3.8923
Na10Y4Al4Si5S7O48,3.8924
CaLa2SnO6,3.8928
Na4HfMgSi(PO6)2,3.894200000000001
Na3SiH3O5,3.8945
P2H18WC6(ClO2)2,3.8953
Li2(BH)11,3.8953
SrAsH3O5,3.8953
NaZrScP2SO12,3.8954
Na6Mn2C4SO16,3.8957000000000006
MnH18C4N8(ClO)4,3.8965
Pr2SiC(NO2)2,3.896700000000001
Na3ZrZn(PO4)3,3.8968
Rb2B10(H5N)5,3.8973
LaScO3,3.8973
Si3(BiO3)4,3.8979
Zn4P3H10C2NO13,3.8981
Sr2ZnSi2O7,3.8987000000000007
Sr5B3BrO9,3.8991
Tb2O3,3.9006
Li4CO4,3.9008
Rb4PbBr6,3.9011
CaLu2O4,3.9013
Zr3GeO8,3.9016
Na3LaZr3(PO4)6,3.9017
BaCaWF7,3.9033
Mg2H18Se2O17,3.9035
LiScO2,3.904
Na2MgFeF7,3.9041
LiMnSO4F,3.9043
Sr2TlBr5,3.9046
Na5HfMg3P3(SO8)3,3.9048
Al3FeSiBO9,3.9052
Na3Mn2CuH10S4O17,3.9056
GaP3(NCl3)3,3.9061
Na10Ca8SiS11O48,3.9065
Na2Al2Si3(HO3)4,3.9066
Mg10Ge3(H2O9)2,3.907000000000001
Li2MnH8(SO6)2,3.9071
Sb2P3(HO3)3,3.9076
RbBaSiHO4,3.9078
Na6Mg3ZrP4(SO12)2,3.908
Ba4NaAl2B8(BrO6)3,3.9083
Cs2H6Pt,3.9083
Lu2(MoO4)3,3.9094
MgH20Br4(NO)4,3.91
Tl2FeH12(SO7)2,3.9101
Na25Zr11Sc5Si12(PO8)12,3.9101
Na10Ca4Mg4SiS11O48,3.9102
AlSbO3,3.9107
Ba(PN2)2,3.9118
Ca3TaGa3(SiO7)2,3.9122
SrCaMn(PO4)2,3.9127
Pr4AsBrO8,3.9136000000000006
Na5Zn4PS5O24,3.9139
Zn3H10C10O13,3.9143
K2ZrGe2O7,3.914800000000001
ZnH12SeO10,3.9156
CsK2BiCl6,3.916
Zr2H16SN3(O2F3)3,3.9163
Mn2PHO3F2,3.9168
LiLaNdSbO6,3.917299999999999
Na6Hf3MgGe2(PO6)4,3.9175
Li7FeP4O14F,3.9178
TlZnF3,3.9179
Li5Fe2(PO4)3,3.9183
Rb2Th(AsO4)2,3.9186
CCl2,3.9193
Sm2C(NO)2,3.9197
LiNiSO4F,3.9201000000000006
Rb3P6N11,3.9206
Y2Be2Fe(SiO5)2,3.9209
Li2InP2HO8,3.921
RbBr,3.9211
ZnPb2F6,3.9228
P2CN3Cl5,3.9229
Na3La2Sc2P3(SO8)3,3.9235
La4B14O27,3.924500000000001
AsSOF9,3.9252
Dy2O3,3.9255
SiH27C10N3F2,3.9256
Na6Al4Zn4SiS11O48,3.9263
Sr2Ge(S2O7)4,3.9265
La(ClO4)3,3.9271
Na5ErH6WO10,3.9271
ZrScP(SO6)2,3.9275
Na7La3Zn(PO4)6,3.9276
TmH3(CO2)3,3.9281
Na3CaZnP(SO6)2,3.9281
KBaSiHO4,3.928500000000001
Na3YHfSi2SO12,3.9301
La4BrCl3O4,3.9305
LiAlH4,3.9307
CaTb4(PO4)4,3.9311
GaH12C4NCl3,3.9312
Sm2(SeO3)3,3.9313
Na2HoMoPO8,3.9324
PH11(C2Cl)2,3.9324
BaZnFeF7,3.9328
Na3Zn2P(SO6)2,3.934800000000001
Th(SeO3)2,3.936
ScH16C3S3O17F9,3.936
BaHIO,3.9362
Sb3C2N(OF8)2,3.937
Na5Tb(MoO4)4,3.938
Ba3Sr2As3ClO12,3.938400000000001
Na3AlCl6,3.9396
LuTl(MoO4)2,3.9398
Rb2PH3SeO8,3.94
KLuO2,3.9404
CoRe3H22(N3O7)2,3.9408
Y2SiO5,3.9409
Na5Ca3HfP3(SO8)3,3.9416
B2Se2O7,3.9418
Ba6Sm2Al4O15,3.9419
Na4YZrSi2PO12,3.9422000000000006
Na7Zr2Ga2Si3(PO8)3,3.9425
NaN3,3.9442
Sr5V3ClO12,3.9446
BaGe(S2O7)3,3.945
TeP6H34(N3O13)2,3.9451
Na3La2Zr2P5SO24,3.9452
Na3MgZr(PO4)3,3.9455
Ho2O3,3.9458
Sr4Al14O25,3.9459
Ba2TaInO6,3.9459
Ca3BI3N2,3.946
P6N7Cl9,3.9464
Al9Cr(BO9)2,3.9466
Na3LuSi2O7,3.946600000000001
K2LiFeF6,3.9473
SmYO3,3.9474
Na2ZnSi3O8,3.9475
Na3La2Zn2PS5O24,3.948
SbP2AuF12,3.9483
SrH2(SeO3)2,3.9485
Na4Th(MoO4)4,3.9494
CaNd2BeO5,3.949500000000001
TbHO2,3.9499
SrIBr,3.9499
KMg4Al9(SiO4)9,3.9502
NaMnH3(CO2)3,3.9508
CaBiF5,3.951400000000001
Ca5As3O12F,3.9518
Na3CaScP2SO12,3.9543
Cs2Li2TiO4,3.9554
NaHfInP2SO12,3.9554
Na14Y4Hf4Si9(SO16)3,3.9561
SrAl2O4,3.9568
Na3Nd9B8O27,3.9569
AsC3N3F8,3.9572
Na14Mg5Zr3(PO4)12,3.9576
TeOF2,3.9577
Na3Zr2Al2P5SO24,3.958
Tl2Cd2(SO4)3,3.9583
Er2ZnTe2(SO7)2,3.9586
Li2Bi3P9O28,3.9591
Na2LiLaCl6,3.9591
K3Bi5(PO4)6,3.9595
Dy29Y3O48,3.9597
Na2LiTbCl6,3.96
Sb2N5F11,3.9603
Na4AlGaSi(PO6)2,3.9603
Na3TmSi2O7,3.961
Li3Sb5(PO4)6,3.961100000000001
MnTl2H12(SO7)2,3.9623
Na3Mg3Sc(SO4)6,3.9632
Dy11Y5O24,3.9632
Na7Mg2Ga2P5SO24,3.9634
SiH17C11N,3.9636
MgZn2(PO4)2,3.964
Sr5B3ClO9,3.9640999999999993
ZnPt(CN)4,3.9641
NaFe(PO3)3,3.9641000000000006
Rb2LiCo(CN)6,3.9642
LiDyO2,3.9643
Ca4Ce2TiSi4(BO6)4,3.965
Sb2TeF14,3.9651
Ca19Si6S6(ClO24)2,3.965500000000001
Ho4Al2O9,3.9659
NaMoP2O7,3.9664
MnH12C2NCl3O2,3.9672
SbPbF7,3.9678
Na3Zr3Ga(PO4)6,3.9679
Na2LiYCl6,3.9688
Li3AlGeO5,3.9692
MgMnF4,3.9694
Rb2NaCeCl6,3.9696
Pr5Si2Se3O17F,3.9696
Rb2PaF7,3.9698
TlP(HO2)2,3.9699
Na8Zr2Sc2Si5SO24,3.9711
YTl(MoO4)2,3.9713
NiPH4ClO3,3.9714
KTmO2,3.9715
Na3ZrAlSi2SO12,3.9720999999999993
NaHf2Mg2PS5O24,3.9722
Li5FeOF5,3.9724
Rb2AsH5O6,3.973
NaCl,3.9736
KDyO2,3.9736
KYO2,3.9739
P2S2O3,3.974
Na2LiDyCl6,3.9746
Na3YZn3(SO4)6,3.9747
Sm2(WO4)3,3.9757
K2LiVO4,3.9761
LiSbCSO7,3.9764
Na2Ta2(SiO4)3,3.9771
Na2ZnGaF7,3.9775
Na6Zn3P4H6O19,3.978
NaZn2P2HO8,3.978
Nd2CO5,3.9784
Na3Hf3GaSi3(SO8)3,3.9784
Tm2O3,3.9787
Na2AsPCO7,3.979
NaLa2TaO6,3.9792
Ba5V3HO13,3.9795
NaSr4(BO3)3,3.9798
Na5Al2In2P5SO24,3.98
NaScO2,3.98
K2SbF5,3.98
Cs2Li5(BO2)7,3.9805
Na10Zr6Si7(PO18)2,3.9808
Na2LiPrCl6,3.9815
LiAlSi2H2O7,3.9817
Li4Si3NiO9,3.9817
Ba3Sr(MoO4)4,3.982
K2NaPrBr6,3.9823
Na7Y2Zn2P5SO24,3.9826
Al(C2N3)3,3.9827
K4CdCl6,3.983
Na8BeAl4Si7(ClO12)2,3.9831
ScTlF6,3.9836
BaGa2B2O7,3.9842
MgTl2H12(SeO7)2,3.9844
MnP(HO)7,3.9845
Rb5Nb3OF18,3.9847
SmY3O6,3.9851
Rb2LiPrBr6,3.9853
Na4Ca2P2SO12,3.9853
Li3Mn2P5O16,3.985300000000001
Na3BiF6,3.9862
Na3HfZn3PS5O24,3.9871
Na9ZrP4ClO16,3.9882
BaAs2F12,3.9883
Na3GaP2H2O9,3.9887000000000006
Na2Sr(SiO3)2,3.9888
KMg30BO32,3.9894
PH4Br,3.9898
Be2GeO4,3.9903
Li8TiO6,3.9916
NaSi2BH2O7,3.9917
Rb2PrBr5,3.9918
Li3V(H4O3)4,3.9924
Na8Hf2Al2Si5SO24,3.9928
Sr5V3HO13,3.993500000000001
NaH4CSNO2,3.9944
BaMgWF7,3.9944
TbH3(CO2)3,3.9948
MgAl2As2(HO)18,3.9949
K2HfO3,3.995200000000001
RbBrO3,3.9953
CaSn(PO3)4,3.9961
Ca3YGa3B4O15,3.9961
Na7Ca2La2P5SO24,3.9966
Ho2C(NO)2,3.9966
Na2S2O3,3.997100000000001
BaRe2(H2O3)4,3.9972
PSN(Cl2O)2,3.9977
Na2LiErCl6,3.9979
Mg3Al8Fe(Si5O18)2,3.9981
Li6Hf2O7,3.9985
Na7Mg2Zn2P3(SO8)3,3.9986
Rb8Hf(MoO4)6,3.9993
KSrI3,3.9993
H2Pb(CO2)2,3.9997
Sr3Bi(ClO)3,4.0001
Na4CaLa(PO4)3,4.0001
Na3YZr3(PO4)6,4.0003
Rb(BH)5,4.0007
Rb2LiNdBr6,4.001
MgSeO3,4.0013
KNaSi2O5,4.0021
LiLaMg30O32,4.0042
Rb8Th(MoO4)6,4.004300000000001
SrFe3(P2O7)2,4.004300000000001
KNiPH2O5,4.0044
BaIn2(P2O7)2,4.0048
Si3CCl7,4.005
Na3TbCl6,4.0055
LiHO,4.0057
Na2LaScP2SO12,4.0059
Na7Ca3HfP5SO24,4.0062
Mg4H2O5,4.006500000000001
Na7Sc2Ga2SiP5O24,4.0067
Sn2MoH12C4O5,4.0067
Na3VH6O7,4.0072
Y2InCl7,4.0073
SrZr4(AsO4)6,4.0082
NdGeBO5,4.0084
RbZnH2Se2BrO6,4.0088
Na2LiNdCl6,4.0094
Na3La9B8O27,4.0102
Te2S(O2F3)2,4.0102
Rb2BiPWO8,4.0107
NaH3(SeO3)2,4.0114
LiYO2,4.0135
Rb2ZnH4,4.0139
Na7Hf2Ga2Si3(PO8)3,4.014200000000001
LiInF4,4.0149
Na5CaAl5Fe(SiO3)12,4.014900000000001
Na2GaNiF7,4.015000000000001
SiH2,4.0154
Na3CaAlP2SO12,4.0162
Rb6Si10O23,4.016500000000001
LiTl2InF6,4.0172
TeF4,4.0186
NiH6(CO3)2,4.0189
SrCaZnSi2O7,4.0192
Ta2CdO6,4.0196000000000005
Na5Zr2Al2SiP5O24,4.0207
Lu2O3,4.021100000000001
RbSrI3,4.0221
Li8ZrO6,4.0226
NaHf2Zn2PS5O24,4.0274
ScTaO4,4.027699999999999
LiH4CSNO2,4.0282
Na3DyCl6,4.0288
Rb2NdBr5,4.0291
Y(AlCl4)3,4.0292
Mg3C2O7,4.0313
YTaO4,4.031499999999999
Rb2SmBr5,4.0326
Tm2C(NO)2,4.0331
Sb2S2O9,4.0335
Na3Zr3In(PO4)6,4.0339
Na3Zn(BO2)5,4.035
RbGa2P2H5O11,4.0351
Na7La2Mg2P5SO24,4.0352
Rb2NaPrBr6,4.0373
Na6TeP6(H3O5)6,4.0377
Na5Hf2Zn2P5SO24,4.0377
Na8Hf2Sc2Si5SO24,4.0387
NaCSN,4.0388
Na3LuCl6,4.0391
Rb2Si2O5,4.0396
HoTaO4,4.0406
Na3Ga(PO4)2,4.0408
Sr2TaGaO6,4.0418
MgZr(SO4)3,4.0419
Rb2LiYBr6,4.042
YMnF5,4.0440000000000005
Cs3Y2Br9,4.0444
Rb4H4C3O10,4.0445
SrHCl,4.044700000000001
Sr9In(PO4)7,4.0448
SrH2Br2O7,4.0463
MnH20S2(NO7)2,4.0467
Na7La2Zr2Si3(PO8)3,4.0467
YHO2,4.0468
LuTaO4,4.0476
Rb2FeH12(SO7)2,4.0478
Na2LaYSi(SO6)2,4.0481
Na3Sm9B8O27,4.048399999999999
Na2ZnP2O7,4.0485
K2Mg(CO3)2,4.0486
Na3Mg2Zr2P3(SO8)3,4.049099999999999
LiMgH3,4.0494
LiGaSiO4,4.0502
Ba2Zn7F18,4.0505
Na3Li2Al(SiO4)2,4.051
SrZr4(PO4)6,4.0517
LiZnInF6,4.052
Na2Hf3ZnP4(SO12)2,4.0532
SrHo2Al2O7,4.053800000000001
P4O7,4.054
SnH46C18(Br2N)2,4.0541
Ca2HoTaO6,4.0547
SrSi2O5,4.0548
LiH3CN2O,4.0558
Na4Al3Si3HO13,4.0558000000000005
NdH24C4I3(NO)8,4.0563
NdMoO4F,4.0564
Na4Sc2Si2SO12,4.0564
Be3As2(H2O5)2,4.0566
CaZn(SiO3)2,4.0566
Rb2NaZn2H5(C2O7)2,4.057099999999999
Sr2ZrGeO6,4.057499999999999
Y15TmO24,4.0577000000000005
P(HO)3,4.0579
LiNdGeO4,4.058400000000001
SrSi7N10,4.0585
Sb2H3NF11,4.0593
MnP4H16(NO8)2,4.0598
P4SO7,4.0600000000000005
Y11Tm5O24,4.0603
Na3Hf2In2P5SO24,4.0604
NaLuO2,4.061
Rb5Er(MoO4)4,4.061100000000001
Y7TmO12,4.062
Li4ZrO4,4.0628
Pr2(WO4)3,4.0628
Rb2H6Pt,4.063000000000001
Pb7(BrF6)2,4.063400000000001
Na3Zr2Zn2P3(SO8)3,4.0653
BaMnCO3F2,4.0654
SrCaDy4Be2O10,4.0655
Mg(BeN)2,4.0657000000000005
Li3V(H6O5)2,4.0668
Na8BeAl4Si7(BrO12)2,4.0672
Na2AlTlF6,4.0673
Tb3Se2ClO8,4.0674
Na5Sc2Zn2P3(SO8)3,4.0683
SbIF10,4.0684
NaLaAlP(SO6)2,4.0686
Na2Al17Si11B7(H3O31)2,4.069699999999999
NaMg30GaO32,4.0702
Nd2Hf2O7,4.0703
Na2Zn3H4(Se2O7)2,4.0703000000000005
Na10Zr8Si9(SO16)3,4.0711
Zn3GaB6PO12,4.0713
Na4HfScSi2PO12,4.071899999999999
SnH22C6(NCl2)2,4.0721
RbCaBr3,4.0722
Li3Ni2(PO3)7,4.0723
SrLaMgTaO6,4.0756000000000006
SmAlO3,4.0771
ZnPH4NO4,4.0772
NaYScP(SO6)2,4.0776
Na3Mg2Sc2PS5O24,4.0783
RbZnF3,4.0784
Y6Pb8OF32,4.0785
BaN3Cl,4.0787
MgMn(CO3)2,4.078900000000001
Na7Hf3MgSi3(PO8)3,4.0792
Na2Al2Si3O10,4.0793
Sr2Be2B2O7,4.0798000000000005
Rb3ScCl6,4.081
LiMg14AlO16,4.081900000000001
Sr3Ta2O8,4.082
Al3NO3,4.0829
Na4Al3Ge3ClO12,4.0831
SeOF2,4.0833
PrMoO4F,4.0857
RbTlCl2,4.0858
LiB(H3N)3,4.086399999999999
ReH4NO4,4.0864
Na7Al2Ga2SiP5O24,4.0868
YB3(H6N)4,4.0868
NaCa4(BO3)3,4.0868
NaCaGaSi2O7,4.087199999999999
Na3Mg4InSi8(O11F)2,4.0872
Na2AsP(H4O5)2,4.0876
ZnPH3O5,4.088
Tb4Al2O9,4.0883
Na2ScZnP(SO6)2,4.0887
NaBr,4.0895
Rb4LiH3(SO4)4,4.0899
SrGe(PO4)2,4.090199999999999
PaH8N2F7,4.0907
Sn2BF7,4.0916
Ni(ClO4)2,4.0918
Na3AlZnP2SO12,4.0920000000000005
Sr4BiP3O13,4.0924
Zn2SeCl2O3,4.0926
Na2MgScP(SO6)2,4.093
RbAlBr4,4.0935
Na5Y3Hf(PO4)6,4.0937
Rb2Bi(ClO4)5,4.0938
Na7La2Hf2Si3(PO8)3,4.0939
Na3Y2Sc2P3(SO8)3,4.0941
MgCoF4,4.0944
Mg3H13C9NO13,4.0947
NaCa9ScZn9(SiO3)20,4.0948
Rb2TbGa(SiO3)4,4.0952
Na7Zr2Al2Si3(PO8)3,4.0963
Si2Ge3P6O25,4.0974
NaCaSc3(SO4)6,4.097799999999999
NaAlGaP(SO6)2,4.0985000000000005
Sr5La2Cl16,4.1002
MgP6(HN3)4,4.101
Na3Zr2Sc2P5SO24,4.1025
Na2LaAlSi(SO6)2,4.1033
Na2Tl2B10O17,4.1036
RbLa2C6N6ClO6,4.103999999999999
NaBO2,4.1041
Na4CaMgP2SO12,4.105
Rb2CaH8(N3O)4,4.1054
MnP2H36C12N6(ClO)2,4.1058