formula,band_gap
MgZn2Ni3O8,0.0
MgZn2Rh,0.0
MgZn3,0.0
MgZn4(Co3O8)2,0.0
MgZn4(SnO2)4,0.0
MgZn5,0.0
MgZnRh2,0.0
MgZn2Ir,0.0
MgZnCu,0.0
MgZnCo,0.0
MgZnAu2,0.0
MgZnAg2,0.0
MgZnNi2,0.0
MgZn2Bi6Ru8O27,0.0
MgZn2,0.0
MgZn(NiO2)4,0.0
MgZn(CoS2)4,0.0
MgZn,0.0
MgZr2,0.0
MgZn2(AgO2)4,0.0
MgZr3,0.0
Mn(InSe2)2,0.0
Mn(Mo3Se4)2,0.0
Mn(NbS2)3,0.0
Mn(NbS2)4,0.0
Mn(NbSe2)4,0.0
Mn(NiN)3,0.0
Mn(PO3)4,0.0
Mn(PO3)5,0.0
Mn(SbO2)2,0.0
Mn(SbO3)2,0.0
Mn(SbS2)2,0.0
Mn11Cu7O24,0.0
Mn11Al4V,0.0
Mn10FeN8,0.0
Mn10CuN8,0.0
Mn10CuGe5,0.0
Mn(InS2)2,0.0
Mn10CrN9,0.0
Mn10C3N,0.0
Mn10(SiGe)3,0.0
Mn(ZnN)2,0.0
Mn(VSi3)2,0.0
Mn(Si2O5)2,0.0
Mn10CoN8,0.0
Mn(GaTe2)2,0.0
Mn(GaS2)2,0.0
Mn(FeO2)2,0.0
Mn(AlS2)2,0.0
Mn,0.0
MgZrZn2,0.0
MgZrPt2,0.0
MgZrNi2,0.0
MgZrIr2,0.0
MgZrAu2,0.0
MgZr4(CuS4)2,0.0
MgZrPd2,0.0
Mn(BH4)2,0.0
Mn(BW)2,0.0
Mn(FeN)2,0.0
Mn(CuTe)2,0.0
Mn(Cu3O4)2,0.0
Mn(CrSe2)2,0.0
Mn(BMo)2,0.0
Mn(CoO2)4,0.0
Mn(Bi3O5)4,0.0
Mn(CoO3)2,0.0
MgPaTc2,0.0
MgPb,0.0
MgPb2,0.0
MgPb3,0.0
MgPb5,0.0
MgPt5,0.0
MgPt2,0.0
MgPt,0.0
MgPdAu2,0.0
MgPaRu2,0.0
MgPd3,0.0
MgPaRh2,0.0
MgPaPt2,0.0
MgNi2Sn,0.0
MgNi3C,0.0
MgNi2,0.0
MgNi,0.0
MgNi3P3O13,0.0
MgNi9O13,0.0
MgPa3,0.0
MgPPd5,0.0
MgP,0.0
MgNiSbP2O9,0.0
MgNiSb,0.0
MgNi5,0.0
MgNiH,0.0
MgNiGe,0.0
MgNiF6,0.0
MgNiBi,0.0
MgNiH2,0.0
MgVF6,0.0
MgVCoS4,0.0
MgVBiO6,0.0
MgV5(MoO5)5,0.0
MgV4O8,0.0
MgVInS4,0.0
MgVN2,0.0
MgVRu2,0.0
MgVO3,0.0
Mn11Ge8,0.0
MgSbPd,0.0
MgRu2W,0.0
MgRh5,0.0
MgRh3,0.0
MgRh2Pb,0.0
MgReN2,0.0
MgRhF6,0.0
MgSbPd2,0.0
MgSb3,0.0
MgSb2(PO5)2,0.0
Mn12Ge4N3,0.0
Mn2FeN2,0.0
Mn2FeO6,0.0
Mn2Ga2S5,0.0
Mn2Ga5,0.0
Mn2GaCo,0.0
Mn2GaCo4Ge,0.0
Mn2GaCu3,0.0
Mn2In2Se5,0.0
Mn2In2CuPd3,0.0
Mn2GeSe4,0.0
Mn2GeS4,0.0
Mn2FeCoP2,0.0
Mn2GeRu,0.0
Mn2Ge3Pd4,0.0
Mn2GaW,0.0
Mn2GaRh,0.0
Mn2GaNi,0.0
Mn2GeO4,0.0
Mn2Fe3Sn(PO4)6,0.0
Mn2Fe3P6WO24,0.0
Mn2CuO4,0.0
Mn2CuNiSb2,0.0
Mn2CuGe,0.0
Mn2Cu(PO4)3,0.0
Mn2InCu4Sn,0.0
Mn2Fe3Ni(PO4)6,0.0
Mn2Fe3Cu10(SnS4)5,0.0
Mn2Fe3Cu(PO4)6,0.0
Mn2Fe3Co3O16,0.0
Mn2Fe3Co(PO4)6,0.0
Mn2Fe3(SiO4)3,0.0
Mn2Fe(PO4)3,0.0
Mn2F7,0.0
Mn2CuSb2Pd,0.0
Mn2InN2,0.0
Mn2O3F,0.0
Mn2OF3,0.0
Mn2OsN3,0.0
Mn2Os(CN)6,0.0
Mn2NbP12,0.0
Mn2NbN3,0.0
Mn2Nb9Ge8,0.0
Mn2NbV3(PO4)6,0.0
Mn2IrRh,0.0
Mn2IrN3,0.0
Mn2InSnPd4,0.0
Mn2InSbPd4,0.0
Mn2InCuTe4,0.0
Mn2Ni(BiO3)3,0.0
Mn2Ni3Sb(PO4)6,0.0
Mn2O3,0.0
Mn2Ni(PO4)3,0.0
Mn2NiSb2Pt,0.0
Mn2NiO3,0.0
Mn2NiN2,0.0
Mn2CrSe3,0.0
Mn12Pt4N,0.0
Mn12Rh4N,0.0
Mn12SiP3,0.0
Mn13Cu11O32,0.0
Mn13Fe(SiO11)2,0.0
Mn13Fe3O32,0.0
Mn20(MoC2)3,0.0
Mn2(Co7B2)3,0.0
Mn2(CN2)3,0.0
Mn19Fe17O48,0.0
Mn15Si26,0.0
Mn15O32,0.0
Mn14Sb13,0.0
Mn12O5F19,0.0
Mn12O17F7,0.0
Mn12HO24,0.0
Mn20Si12C,0.0
Mn2CoN2,0.0
Mn2CoAs,0.0
Mn2Co5O12,0.0
Mn2Co2SiGe,0.0
Mn2Co(PO4)3,0.0
Mn2CdTe3,0.0
Mn2CdO4,0.0
Mn2CdO3,0.0
Mn2Co3Ge,0.0
Mn2CdN2,0.0
Mn2CoSb,0.0
Mn2CoSn,0.0
Mn2CrO4,0.0
Mn2CrNi3(PO4)6,0.0
Mn2CrN3,0.0
Mn2CrI6,0.0
Mn2CoSi,0.0
Mn2CrCo,0.0
Mn2CrAs3,0.0
Mn2Cr3Co3O16,0.0
Mn2Cr13S20,0.0
Mn2Cr(PO4)3,0.0
Mn11Pd21,0.0
Mn2Cd3O5,0.0
Mn2BrO3,0.0
Mn2AlCo,0.0
Mn2AlB2,0.0
Mn2AlO4,0.0
Mn27Sb26,0.0
Mn26As18CO57,0.0
Mn23C6,0.0
Mn23As16,0.0
Mn23(BC2)2,0.0
Mn23(BC)3,0.0
Mn21Sn9O40,0.0
Mn2Bi3O7,0.0
Mn2BeO4,0.0
Mn2B4W,0.0
Mn2B4Mo,0.0
Mn2AsP,0.0
Mn2AsHO5,0.0
Mn2As,0.0
Mn2AlW,0.0
Mn2AlV,0.0
Mn2AsO5,0.0
Mn2P,0.0
MgNbVO4,0.0
MgFe8(O7F)2,0.0
MgFeBiO5,0.0
MgFeCo3O8,0.0
MgFeF6,0.0
MgFeRh2,0.0
MgFeSiO5,0.0
MgGa,0.0
MgFe6O11F,0.0
MgFe3(OF)3,0.0
MgFe2O5,0.0
MgFe3Co2Sb(PO4)6,0.0
MgFe2(PO5)2,0.0
MgFe12(OF)12,0.0
MgFe11O18,0.0
MgFe10(O4F)4,0.0
MgFe3Co5O16,0.0
MgFe4Si2Sn7O16,0.0
MgFe4(CuO4)3,0.0
MgFe3Ni2Sb(PO4)6,0.0
MgGa2,0.0
MgGe3,0.0
MgGeRh2,0.0
MgHg3,0.0
MgIn2,0.0
MgIn,0.0
MgHg5,0.0
MgGa3,0.0
MgGaPd2,0.0
MgGaNi2,0.0
MgGaIr2,0.0
MgGaCu,0.0
MgGaAu2,0.0
MgGaAg2,0.0
MgGa5,0.0
MgCo4(NiS4)2,0.0
MgCo4(P2O7)4,0.0
MgCo5N4,0.0
MgCo6O7F5,0.0
MgCoBi2O7,0.0
MgCoCu3Se4,0.0
MgCoGe,0.0
MgCoNi,0.0
MgCoNiP2O9,0.0
MgCr7(SO4)12,0.0
MgCr4O8,0.0
MgCo4(CuO4)3,0.0
MgCr4O12,0.0
MgCr3(SO4)6,0.0
MgCr2(PO5)2,0.0
MgCr2(CoO3)4,0.0
MgCoSiO5,0.0
MgCo3C,0.0
MgCo3BiO8,0.0
MgCdAg2,0.0
MgCd3,0.0
MgCdAu2,0.0
MgCo3(P2O7)2,0.0
MgCo3,0.0
MgCo2Si,0.0
MgCo2(PO4)2,0.0
MgCo2(NiS2)4,0.0
MgCo2,0.0
MgCdPd2,0.0
MgCo2(CuO4)2,0.0
MgCrCu3Se4,0.0
MgCu6OF11,0.0
MgCu6(OF)4,0.0
MgCuAs,0.0
MgCuSn,0.0
MgCuSb,0.0
MgCuPb,0.0
MgCuP4(RuO7)2,0.0
MgCuO2,0.0
MgCuF5,0.0
MgCu2O3,0.0
MgCu2Ag(SeO5)2,0.0
MgCu2Ag(SO5)2,0.0
MgCu2(TeO4)2,0.0
MgCu3,0.0
MgCu,0.0
MgCu2,0.0
MgCu4Sn,0.0
MgCu3(BiO3)4,0.0
MgCu3(NiO3)4,0.0
MgCu4(ClO3)2,0.0
MgCu3O4,0.0
MgMn6O7F5,0.0
MgMn8(OF)8,0.0
MgMnAlS4,0.0
MgMnGe,0.0
MgMnGaS4,0.0
MgMnFeS4,0.0
MgMnCrS4,0.0
MgMnCoO4,0.0
MgMnCo5O12,0.0
MgMnCo3O8,0.0
MgMnCd6O8,0.0
MgMn6(O5F)2,0.0
MgMnInS4,0.0
MgMn6O11F,0.0
MgMnN2,0.0
MgNb3SiO10,0.0
MgNb4(IO2)4,0.0
MgNb4(NO)4,0.0
MgNbRu2,0.0
MgNbRh2,0.0
MgNbBi3O7,0.0
MgNb4(SnO6)2,0.0
MgNb4(O2F)4,0.0
MgNb2PdS6,0.0
MgMo2(BrO)4,0.0
MgMnVS4,0.0
MgMnVP2(O4F)2,0.0
MgMnTl(VS2)4,0.0
MgMo2(IrO6)2,0.0
MgMnTe4,0.0
MgMnNiS4,0.0
MgMnNbO4,0.0
MgMnRh2,0.0
MgMo2(WS4)2,0.0
MgNb2(I3O)2,0.0
MgNb2,0.0
MgMoW3S8,0.0
MgMo2HO6,0.0
MgMn12(O7F5)2,0.0
MgMn12O17F7,0.0
MgMn2(CoO4)2,0.0
MgMn2(PO5)2,0.0
MgMn2O4,0.0
MgMn3Cd2O8,0.0
MgMn2Zn2O6,0.0
MgMn2P2O9,0.0
MgIn5,0.0
MgIn3,0.0
MgMn3Cu3O8,0.0
MgMn(CoO3)2,0.0
MgMn(CoO2)4,0.0
MgIr2(WO6)2,0.0
MgIr2,0.0
MgIr,0.0
MgInS3,0.0
MgInRh2,0.0
MgInPd2,0.0
MgInNi2,0.0
MgInIr2,0.0
MgMn3CuO8,0.0
MgMn5CuO12,0.0
MgMn4ZnS8,0.0
MgMn4ZnO8,0.0
MgMn4Zn2O8,0.0
MgMn4O8,0.0
MgMn4(NiO4)2,0.0
MgMn4(HO4)2,0.0
MgMn4(ZnS4)2,0.0
MgMn4(CuO4)2,0.0
MgMn3SnO8,0.0
MgMn3O6,0.0
MgMn4Cu2(PO4)6,0.0
MgMn4O7F,0.0
MgMn4In2O10,0.0
MgMn4Cd2O8,0.0
MgMn4FeO8,0.0
MgMn4CuO8,0.0
MgCd2Te2(MoO6)2,0.0
Mn2P3O10,0.0
Mn4CuO8,0.0
Mn4Fe2P3,0.0
Mn4Fe2Sb3,0.0
Mn4Fe8Si3Ge,0.0
Mn4Fe8SiGe3,0.0
Mn4FeC2,0.0
Mn4FeGe3,0.0
Mn4FeO5,0.0
Mn4FeS5,0.0
Mn4Ga3Co8Ge,0.0
Mn4Ga3Cu2,0.0
Mn4In4(SeS)5,0.0
Mn4O7F,0.0
Mn4O3F5,0.0
Mn4NiO8,0.0
Mn4N,0.0
Mn4InSb3,0.0
Mn4Cu,0.0
Mn4CrO8,0.0
Mn4Cr(GaCo2)5,0.0
Mn4Al11,0.0
Mn4(PO4)3,0.0
Mn4Al19,0.0
Mn3ZnO7,0.0
Mn3ZnC,0.0
Mn3Zn8N9,0.0
Mn3W3C,0.0
Mn3VP4,0.0
Mn4AsP3,0.0
Mn4CoO8,0.0
Mn4CoNi3Ge4,0.0
Mn4CdS5,0.0
Mn4CdO5,0.0
Mn4BiSb3,0.0
Mn4B,0.0
Mn5CuO12,0.0
Mn5Fe5(SiC)2,0.0
Mn5Fe5Si6,0.0
Mn5FeN4,0.0
Mn5FeO12,0.0
Mn5Ga4Pd3,0.0
Mn5Sb4,0.0
Mn5Sb3O16,0.0
Mn5Sb(PO4)6,0.0
Mn5OF11,0.0
Mn5O8,0.0
Mn5Cu(PO4)6,0.0
Mn5O3F5,0.0
Mn5NiN4,0.0
Mn5Nb7N2,0.0
Mn5O5F,0.0
Mn5Cr(PO4)6,0.0
Mn5CoN4,0.0
Mn4Zn(CuO4)3,0.0
Mn4VSe5,0.0
Mn4TeO8,0.0
Mn4Te3Se,0.0
Mn4ZnO6,0.0
Mn4SiO7,0.0
Mn4Se3N2,0.0
Mn4S3N2,0.0
Mn4SiMoC,0.0
Mn4ZnO8,0.0
Mn4ZnS8,0.0
Mn5Co(PO4)6,0.0
Mn5BPd15,0.0
Mn5B2P,0.0
Mn5Al8,0.0
Mn5Al2V,0.0
Mn5(P2O7)4,0.0
Mn5(NiBi2)2,0.0
Mn3VCu2(PO4)6,0.0
Mn3NbFe2(PO4)6,0.0
Mn3NbNi2(PO4)6,0.0
Mn3Ni(PO4)4,0.0
Mn3Ni2Te3O16,0.0
Mn3Ni3(TeO8)2,0.0
Mn3NiN,0.0
Mn3NiP2,0.0
Mn3O4,0.0
Mn3O5F,0.0
Mn3NbCr2(PO4)6,0.0
Mn3Nb2Co3O16,0.0
Mn3Ge,0.0
Mn3GaC,0.0
Mn3Ga4Ni9,0.0
Mn3FeSn2(PO4)6,0.0
Mn3FeP4,0.0
Mn3FeO8,0.0
Mn3GeC,0.0
Mn3Nb(PO4)6,0.0
Mn3N2,0.0
Mn3Mo3C,0.0
Mn3IrN,0.0
Mn3In2Sb3O14,0.0
Mn3HO6,0.0
Mn3GeN,0.0
Mn3GeIr,0.0
Mn3Ir,0.0
Mn3OF5,0.0
Mn3Sn2,0.0
Mn3Sn,0.0
Mn3SiW2,0.0
Mn3SiNi2,0.0
Mn3SiNi,0.0
Mn3SiN4,0.0
Mn3Sn2Pd5,0.0
Mn3SiIr,0.0
Mn3Si,0.0
Mn3Se3O10,0.0
Mn3SbO8,0.0
Mn3Sb2,0.0
Mn3VCr2(PO4)6,0.0
Mn3V8N9,0.0
Mn3V2Si3,0.0
Mn3V2O10,0.0
Mn3V2Ga2Co,0.0
Mn3SnC,0.0
Mn3V2Co3O16,0.0
Mn3V17Si12,0.0
Mn3V(PO4)6,0.0
Mn3TeO8,0.0
Mn3Te2Se,0.0
Mn3SnN,0.0
Mn3Sb,0.0
Mn3Sb(PO4)4,0.0
Mn3OF6,0.0
Mn3OF8,0.0
Mn3Rh,0.0
Mn3ReO6,0.0
Mn3Pt,0.0
Mn3Pd5,0.0
Mn3P3O13,0.0
Mn5Si3,0.0
Mn8Si8Mo3,0.0
Mn8Sn5,0.0
Mn8Zn14Ga27,0.0
Mn9(Cu3O10)2,0.0
Mn9(FeN4)2,0.0
Mn9(P2O7)8,0.0
Mn9(PbO5)4,0.0
Mn9(Si2O9)2,0.0
Mn9Al4V3,0.0
Mn9Au31,0.0
Mn9CdO10,0.0
Mn9Zn2O13,0.0
MnAl(WO4)2,0.0
MnAl,0.0
MnAg2SnTe4,0.0
MnAg2SnSe4,0.0
MnAg2Sn3S8,0.0
Mn7Sn(PO4)12,0.0
Mn7SbAsO12,0.0
Mn7Sb4,0.0
Mn7Sb(PO4)12,0.0
Mn7Pd9,0.0
Mn7SnN2,0.0
Mn7Ni8Sn,0.0
Mn7Ni(PO4)12,0.0
MnAl12Fe,0.0
Mn8(Al9Zn)3,0.0
Mn8Nb3Al,0.0
Mn8HO16,0.0
Mn8Fe3N8,0.0
Mn8Cl3O10,0.0
Mn8Nb3Si,0.0
MnAl24Cr,0.0
MnAl2Cr3,0.0
MnAu2,0.0
MnAu3,0.0
MnAu4,0.0
MnAuO2,0.0
MnB,0.0
MnB4,0.0
MnB4Mo3,0.0
MnB4W3,0.0
MnBO3,0.0
MnBe12,0.0
MnBiO3,0.0
MnBeRu2,0.0
MnBe4Al,0.0
MnBe2Ru,0.0
MnBe2Rh,0.0
MnBe2Pt,0.0
MnBe2Ir,0.0
MnBe2Co,0.0
MnAsRu,0.0
MnAsRh,0.0
MnAlIr2,0.0
MnAlGe,0.0
MnAlFe2,0.0
MnAlCuPd,0.0
MnAlCo2,0.0
MnAl6,0.0
MnAl2Tc,0.0
MnAl2Ni,0.0
MnAl2Cu,0.0
MnAlCu2,0.0
MnAl2Co,0.0
MnAlNi2,0.0
MnAlOs2,0.0
MnAsPd2,0.0
MnAsPd,0.0
MnAs,0.0
MnAlV2,0.0
MnAlPt,0.0
MnAlPd2,0.0
MnAlRu2,0.0
Mn7Fe3O20,0.0
Mn7Fe3,0.0
Mn7Fe(PO4)12,0.0
Mn6O5F7,0.0
Mn6Ga29,0.0
Mn6Cr9O20,0.0
Mn6C,0.0
Mn6BiPO12,0.0
Mn6BP,0.0
Mn6Al31Ni2,0.0
Mn6Al31Cu2,0.0
Mn5SnO8,0.0
Mn5Sn(PO4)6,0.0
Mn5SiC,0.0
Mn5V(PO4)6,0.0
Mn6HO12,0.0
Mn6Ni16As7,0.0
Mn6Mo6P7,0.0
Mn6O11F,0.0
Mn6Ni16P7,0.0
Mn6Ni16Ge7,0.0
Mn7(AsO8)2,0.0
Mn7(AsO4)6,0.0
Mn6Zn2CN,0.0
Mn6Si8Mo5,0.0
Mn6Si7Ni16,0.0
Mn7(P2O7)4,0.0
Mn6OF11,0.0
Mn6PO12,0.0
Mn7(PbO5)3,0.0
Mn7Cu(PO4)12,0.0
Mn7Cr(PO4)12,0.0
Mn7Co(PO4)12,0.0
Mn7CdO12,0.0
Mn7BiO12,0.0
Mn7(Si2Mo)4,0.0
Mn7C3,0.0
Mn5Si2Ge,0.0
Mn3FeNi2(PO4)6,0.0
MgTaIr2,0.0
MgTaOs2,0.0
MgTaRu2,0.0
MgTe(WO4)3,0.0
MgTeWO6,0.0
MgTi2,0.0
MgTi14O25,0.0
MgTi11O20,0.0
MgTi(SiO3)2,0.0
MgTi(Si2O5)2,0.0
MgTi(GaO2)4,0.0
MgTa2N3,0.0
MgSn3,0.0
MgSn3P3O13,0.0
MgSn2,0.0
MgTa2(ReO6)2,0.0
MgSnRh2,0.0
MgSnIr2,0.0
MgSnF5,0.0
MgTi3,0.0
MgTi3(SnO4)3,0.0
MgTi3CuO8,0.0
MgTi3Fe2Co(PO4)6,0.0
MgTi3Nb3O12,0.0
MgTi3O6,0.0
MgTi4(CuO4)3,0.0
MgTi4O6,0.0
MgTi4Cr2O10,0.0
MgTi4(CuS4)2,0.0
MgTi2NiO6,0.0
MgTi2Nb2(CuO4)3,0.0
MgTi2Al4O10,0.0
MgTi2O4,0.0
MgTi23O40,0.0
MgTi2(HgO3)2,0.0
MgTi2Tl2W2(O5F)2,0.0
MgTi2P2O9,0.0
MgSbRu2,0.0
MgSc2,0.0
MgSc2Al,0.0
MgSc2Ga,0.0
MgSc2In,0.0
MgSc2Mn4O10,0.0
MgSc2Os,0.0
MgSc2Ru,0.0
MgScCd2,0.0
MgScAu2,0.0
MgSc8Ga15Cu29,0.0
MgSc5Al4,0.0
MgSc5,0.0
Mn2V(PO5)2,0.0
MgSc4Ti2O10,0.0
MgSc2Ti2O7,0.0
Mn2TeSe,0.0
Mn2Sb2PtAu,0.0
Mn2Sb2O7,0.0
Mn2Sb,0.0
Mn2Si2O7,0.0
Mn2PdPt,0.0
Mn2Pb2O5,0.0
Mn2P3O11,0.0
Mn2PtRh,0.0
MgScHg2,0.0
Mn2SnW,0.0
Mn2SnTe4,0.0
Mn2SnSe4,0.0
Mn2SnS4,0.0
Mn2SnRu,0.0
Mn2SnO4,0.0
Mn2Sn(PO4)3,0.0
Mn2Sn,0.0
Mn2SiSe4,0.0
Mn2SnPd3,0.0
MgScIr2,0.0
MgScMnS4,0.0
MgScMoS4,0.0
MgSiNiO5,0.0
MgSiIr2,0.0
MgSiRh2,0.0
MgSi,0.0
MgScVS4,0.0
MgScTiS4,0.0
MgScSe3,0.0
MgScPt2,0.0
MgScZn2,0.0
Mn3Ag(PO4)3,0.0
Mn3AgN,0.0
Mn3Al,0.0
Mn3Al9Si,0.0
Mn3AlO6,0.0
Mn3As,0.0
Mn3As2,0.0
Mn3AsN,0.0
Mn3AsO8,0.0
Mn3Co2As3Rh,0.0
Mn3Co(PO4)4,0.0
Mn3Co,0.0
Mn3CdTe4,0.0
Mn3(SiTe3)2,0.0
Mn3C,0.0
Mn3Be,0.0
Mn3BO5,0.0
Mn3B8Mo3,0.0
Mn3B4W,0.0
Mn3B4Mo3,0.0
Mn3B4,0.0
Mn3BiO8,0.0
Mn3(SeN)2,0.0
Mn3(PO4)4,0.0
Mn3(O2F)2,0.0
Mn3Co2Sn(PO4)6,0.0
Mn3(P3Pd10)2,0.0
Mn3(P2O7)2,0.0
Mn3(OF3)2,0.0
Mn3(OF2)2,0.0
Mn3(Ni10P3)2,0.0
Mn3Co2Te3O16,0.0
Mn3Co3(TeO8)2,0.0
Mn3Cu3(TeO8)2,0.0
Mn3Cu3O8,0.0
Mn3CuAs2,0.0
Mn3CuN,0.0
Mn3CuO8,0.0
Mn3Fe,0.0
Mn3Fe(PO4)6,0.0
Mn3Fe2P6WO24,0.0
Mn3Fe2Sb(PO4)6,0.0
Mn3Fe2Sn(PO4)6,0.0
Mn3FeN3,0.0
Mn3FeCo2P3,0.0
Mn3FeCo2(PO4)6,0.0
Mn3FeAs4,0.0
Mn3Fe9P4,0.0
Mn3Fe9C4,0.0
Mn3Cu2Sn(PO4)6,0.0
Mn3Fe8CuO16,0.0
Mn3Fe3O8,0.0
Mn3Fe3N5,0.0
Mn3Fe3(TeO8)2,0.0
Mn3Fe3(CoO8)2,0.0
Mn3Fe3Si2,0.0
Mn3Cu2NiO8,0.0
Mn3Cu2Ni(PO4)6,0.0
Mn3Cu(PO4)4,0.0
Mn3Cr2Sn(PO4)6,0.0
Mn3Cr2Sb(PO4)6,0.0
Mn3Cr2Fe(PO4)6,0.0
Mn3Cr2Co3O16,0.0
Mn3CoSn2(PO4)6,0.0
Mn3Cr2Te3O16,0.0
Mn3CoN3,0.0
Mn3CoCu2(PO4)6,0.0
Mn3CoAs3Rh2,0.0
Mn3Co3(SnO8)2,0.0
Mn3Cr3(CoO8)2,0.0
Mn3Cr3B8,0.0
Mn3CrTe4,0.0
Mn3CrTe2(PO4)6,0.0
Mn3CrP4,0.0
Mn3CrNi2(PO4)6,0.0
Mn3CrN3,0.0
Mn3CrCu2(PO4)6,0.0
Mn3CrAs4,0.0
Mn3Cr8CuS16,0.0
Mn3Cr5O16,0.0
Mn3Cr3Si7Ni16,0.0
Mn3Cr3O8,0.0
Mn3CrCo2(PO4)6,0.0
Mn3(Ni10B3)2,0.0
Mn3(FeN2)2,0.0
MgTiAlS4,0.0
MgTiBO4,0.0
MgTiCoS4,0.0
MgTiCrS4,0.0
MgTiFeS4,0.0
MgTiH4,0.0
MgTiMn(PO4)3,0.0
MgTiVO4,0.0
MgTiS2,0.0
MgTiRh2,0.0
MgTi8(NiO3)8,0.0
MgTiNi(PO4)3,0.0
MgTiNbS4,0.0
MgTiMnS4,0.0
MgTiMn3O8,0.0
MgTiNiS4,0.0
MgTi7H16,0.0
MgTi6AgS12,0.0
MgTl2(CoO3)2,0.0
MgTi6(H2O7)2,0.0
MgTi6(N2O3)2,0.0
MgTl3,0.0
Mn2VSi,0.0
Mn2VNi3(PO4)6,0.0
Mn2VN3,0.0
Mn2VGe,0.0
Mn2V3Sn(PO4)6,0.0
Mn2V3Sb(PO4)6,0.0
Mn2V3P6WO24,0.0
Mn2V3NiO8,0.0
Mn2VGa,0.0
Mn3(CuBi)4,0.0
Mn3(CrN2)2,0.0
Mn3(Co2Ge3)2,0.0
Mn3(Co10B3)2,0.0
Mn3(Al2Si)2,0.0
Mn2ZnTe4,0.0
Mn2ZnSe4,0.0
Mn2ZnS4,0.0
Mn2V3Cr(PO4)6,0.0
MgV4O6,0.0
MgV2(CuO4)2,0.0
MgV2(AuS2)2,0.0
MgV(SbO3)4,0.0
MgU8Se17,0.0
MgU2O6,0.0
MgTlRh2,0.0
Mn2V3Co(PO4)6,0.0
MgV2(SiO3)4,0.0
MgV2Cu3O8,0.0
MgV4(O2F)4,0.0
MgV4(CuS4)2,0.0
MgV2CoO6,0.0
MgV3O8,0.0
MgV3CrS8,0.0
MgV2O4,0.0
MgV2NiO6,0.0
MgV2CuO6,0.0
MgV3CuO8,0.0
MgCd2(NiO2)4,0.0
Mg14NbZn,0.0
Mg14NbZnO16,0.0
Mg14NiBi,0.0
Mg14NiMo,0.0
Mg14NiSb,0.0
Mg14NiSnO16,0.0
Mg14SbMo,0.0
Mg14SbW,0.0
Mg14SiBi,0.0
Mg14SnSb,0.0
Mg14SnMo,0.0
Mg14SiSn,0.0
Mg14SiSb,0.0
Mg14SiNi,0.0
Mg14SiMo,0.0
Mg14NbCrO16,0.0
Mg14NbCr,0.0
Mg14NbCoO16,0.0
Mg14NbCdO16,0.0
Mg14NbCd,0.0
Mg14NbFeO16,0.0
Mg14NbSn,0.0
Mg14NbSi,0.0
Mg14NbSb,0.0
Mg14NbFe,0.0
Mg14NbNiO16,0.0
Mg14NbMo,0.0
Mg14NbGa,0.0
Mg14NbBi,0.0
Mg14SnW,0.0
Mg14TiAl,0.0
Mg14TiSb,0.0
Mg14TiSi,0.0
Mg14TiSiO16,0.0
Mg14TiSn,0.0
Mg14TiV,0.0
Mg14TiW,0.0
Mg14TiZn,0.0
Mg14VCuO16,0.0
Mg14VCu,0.0
Mg14VCr,0.0
Mg14TiNi,0.0
Mg14VBi,0.0
Mg14TiZnO16,0.0
Mg14TiCr,0.0
Mg14TiCoO16,0.0
Mg14TiCo,0.0
Mg14TiCd,0.0
Mg14TiBi,0.0
Mg14TiAlO16,0.0
Mg14TiCrO16,0.0
Mg14TiCu,0.0
Mg14TiMnO16,0.0
Mg14TiMn,0.0
Mg14TiGa,0.0
Mg14TiFeO16,0.0
Mg14TiCuO16,0.0
Mg14NbAlO16,0.0
Mg14CuMo,0.0
Mg14CuSb,0.0
Mg14CuSi,0.0
Mg14CuSiO16,0.0
Mg14CuSn,0.0
Mg14CuSnO16,0.0
Mg14FeCu,0.0
Mg14FeCoO16,0.0
Mg14CrSnO16,0.0
Mg14FeBiO16,0.0
Mg14CuW,0.0
Mg14CrCo,0.0
Mg14CoSi,0.0
Mg14CoSb,0.0
Mg14CrCoO16,0.0
Mg14CrCu,0.0
Mg14CrSi,0.0
Mg14CrSb,0.0
Mg14CrMo,0.0
Mg14CrGa,0.0
Mg14CrFeO16,0.0
Mg14CrFe,0.0
Mg14FeNi,0.0
Mg14FeNiO16,0.0
Mg14MnCu,0.0
Mg14MnCrO16,0.0
Mg14MnCuO16,0.0
Mg14MnCd,0.0
Mg14NbAl,0.0
Mg14MnZn,0.0
Mg14MnSnO16,0.0
Mg14MnSn,0.0
Mg14MnSi,0.0
Mg14MnNi,0.0
Mg14MnBiO16,0.0
Mg14GaFe,0.0
Mg14GaCu,0.0
Mg14GaCo,0.0
Mg14GaC,0.0
Mg14FeSn,0.0
Mg14FeSi,0.0
Mg14FeSb,0.0
Mg14GaNi,0.0
Mg14MnBi,0.0
Mg14MnAlO16,0.0
Mg14GaW,0.0
Mg14GaSi,0.0
Mg14GaSb,0.0
Mg16Si8HO32,0.0
Mg16TaAl12,0.0
Mg16UAl12,0.0
Mg16ZrAl12,0.0
Mg17(SiO3)16,0.0
Mg17(SiO3)20,0.0
Mg17Al11Ag,0.0
Mg17Al12,0.0
Mg17Al11Sn,0.0
Mg17Al11Si,0.0
Mg17Al11Pt,0.0
Mg17Al11In,0.0
Mg17Al11Ga,0.0
Mg17Al11Pd,0.0
Mg16Si7HO32,0.0
Mg16ScAl12,0.0
Mg16Al12Te,0.0
Mg16Al12Tc,0.0
Mg16Al12Ru,0.0
Mg16Al12Rh,0.0
Mg16Al12Re,0.0
Mg16Al12Si,0.0
Mg16Al12V,0.0
Mg16NpAl12,0.0
Mg16MnAl12,0.0
Mg16BeAl12,0.0
Mg16Al13,0.0
Mg16Al12W,0.0
Mg23Al30,0.0
Mg2Bi3,0.0
Mg2Bi3O8,0.0
Mg2CdAg,0.0
Mg2Cr3NiS8,0.0
Mg2CoIrO6,0.0
Mg2CoB2Ir5,0.0
Mg2Co7O12,0.0
Mg2Bi,0.0
Mg2Co3Sn10,0.0
Mg2Co12P7,0.0
Mg2Co12As7,0.0
Mg2CdPd,0.0
Mg2CdHg,0.0
Mg2Co3O8,0.0
Mg2AgWO6,0.0
Mg2AgPt,0.0
Mg2AgPd,0.0
Mg2AgIr,0.0
Mg2Ag,0.0
Mg29Pd4,0.0
Mg29Ir4,0.0
Mg26Ag7,0.0
Mg2AgAu,0.0
Mg21Zn25,0.0
Mg2Al3,0.0
Mg2BeB2Ir5,0.0
Mg2B2AsIr5,0.0
Mg2Au,0.0
Mg2As,0.0
Mg2B4Ru5,0.0
Mg16Al12Pd,0.0
Mg14ZnSn,0.0
Mg14ZnW,0.0
Mg14ZrCu,0.0
Mg14ZrGa,0.0
Mg14ZrSn,0.0
Mg14ZrSi,0.0
Mg14ZrSb,0.0
Mg14ZrNb,0.0
Mg14ZrMn,0.0
Mg14ZnSi,0.0
Mg14ZnCd,0.0
Mg14ZnBiO16,0.0
Mg14ZnBi,0.0
Mg14VZn,0.0
Mg14ZnCo,0.0
Mg14VSn,0.0
Mg14VSi,0.0
Mg14VSb,0.0
Mg14VSnO16,0.0
Mg14ZnCr,0.0
Mg14ZnNi,0.0
Mg14ZnMo,0.0
Mg14ZnGa,0.0
Mg14ZnFe,0.0
Mg14ZnCuO16,0.0
Mg14ZrTi,0.0
Mg14ZrV,0.0
Mg16Al12Ge,0.0
Mg16Al12Ga,0.0
Mg16Al12Fe,0.0
Mg16Al12H,0.0
Mg16Al12F,0.0
Mg16Al12Cr,0.0
Mg16Al12Co,0.0
Mg16Al12Cd,0.0
Mg16Al12Cu,0.0
Mg16Al12Hg,0.0
Mg16Al12I,0.0
Mg16Al12Pb,0.0
Mg16Al12P,0.0
Mg16Al12Os,0.0
Mg16Al12O,0.0
Mg16Al12Mo,0.0
Mg16Al12In,0.0
Mg16Al12Br,0.0
Mg15Ga,0.0
Mg15Fe,0.0
Mg15Cu,0.0
Mg15Cr,0.0
Mg15Co,0.0
Mg15Mo,0.0
Mg15B,0.0
Mg15Al,0.0
Mg14ZrZn,0.0
Mg14ZrW,0.0
Mg15Bi,0.0
Mg15Nb,0.0
Mg16Al12Bi,0.0
Mg16Al12Au,0.0
Mg16Al12Ag,0.0
Mg15Ni,0.0
Mg15Zr,0.0
Mg15W,0.0
Mg15V,0.0
Mg15Sn,0.0
Mg15Si2Ir5,0.0
Mg15Si,0.0
Mg15Zn,0.0
Mg14CoMo,0.0
Mg14CoCuO16,0.0
LiZn4(SnO2)4,0.0
LiZn4SnO8,0.0
LiZnAg2,0.0
LiZnAu2,0.0
LiZnCd2,0.0
LiZnCr3(SO4)6,0.0
LiZnCu2,0.0
LiZnF6,0.0
LiZnGe,0.0
LiZnNi2,0.0
LiZnO2,0.0
LiZnPd2,0.0
LiZr2(SeO)2,0.0
LiZr2Ir,0.0
Lu,0.0
LiZrSe2,0.0
LiZrS2,0.0
LiZrRh2,0.0
LiZrPt2,0.0
LiZrO2,0.0
LiZrAu2,0.0
LiZr2Tc,0.0
LiZr2Re,0.0
LiZr2Os,0.0
LiZn,0.0
LiYTl2,0.0
LiYSn,0.0
LiYSi,0.0
LiZn(Fe5O8)2,0.0
LiYMg14,0.0
LiYGe,0.0
LiYAu2,0.0
LiZn(SbO2)4,0.0
LiZn3,0.0
LiZn2Rh,0.0
LiZn2Pt,0.0
LiZn2Ni,0.0
LiZn2Au,0.0
LiZn2Pd,0.0
Lu(Al2Cu)4,0.0
Lu(Mg4Al3)4,0.0
Lu(MnAl)6,0.0
Lu(MnAl2)4,0.0
Lu(MnGa)6,0.0
Lu(MnGe)6,0.0
Lu(MnSi)2,0.0
Lu(MnSn)6,0.0
Lu(Mo3Se4)2,0.0
Lu(NiGe)2,0.0
Lu(P2Rh3)2,0.0
Lu(SiNi)2,0.0
Lu(SiOs)2,0.0
Lu11Te4,0.0
Lu11Ge10,0.0
Lu11Cd45,0.0
Lu10Mn13C18,0.0
Lu10In20Ni9,0.0
Lu(SiRu)2,0.0
Lu(SiRh)2,0.0
Lu(SiPt)2,0.0
Lu(SiPd)2,0.0
Lu(VFe5)2,0.0
Lu(FeSn)6,0.0
Lu(FeO2)2,0.0
Lu(Co2Ge)2,0.0
Lu(BRu)4,0.0
Lu(BRh)4,0.0
Lu(AlCu)6,0.0
Lu(Al5Os)2,0.0
Lu(Al5Fe)2,0.0
Lu(AlGe)2,0.0
Lu(Al2Cr)4,0.0
Lu(CoGe)2,0.0
Lu(CrFe5)2,0.0
Lu(FeGe)6,0.0
Lu(FeB)2,0.0
Lu(Fe5Si)2,0.0
Lu(CoGe)6,0.0
Lu(Fe5Mo)2,0.0
Lu(CuSn)2,0.0
Lu(CuS)3,0.0
Lu(CuO2)2,0.0
LiY4(BiO3)4,0.0
LiY3(PO4)3,0.0
Mg(CuO2)2,0.0
Mg(CuO2)4,0.0
Mg(CuS2)2,0.0
Mg(Fe5N4)2,0.0
Mg(FeGe)6,0.0
Mg(MnS2)4,0.0
Mg(MnS2)2,0.0
Mg(Mn2S3)2,0.0
Mg(MnGe)6,0.0
Mg(CoGe)6,0.0
Mg(Co3P2)2,0.0
Mg(Co2Ge3)2,0.0
Mg(BiO2)4,0.0
Mg(As2Rh3)2,0.0
Mg(AlSi)2,0.0
Mg(AlGe)2,0.0
Mg(AgO2)2,0.0
Mg(CuO)8,0.0
Mg(CoS2)4,0.0
Mg(CoO2)4,0.0
Mg(MnSn)6,0.0
LiVS2,0.0
LiVRh2,0.0
LiVPO5,0.0
LiVOF3,0.0
LiVO2,0.0
LiVSe2,0.0
LiVIr2,0.0
LiVF4,0.0
LiWCl6,0.0
LiY2Ru,0.0
LiY2Rh,0.0
LiW6CCl18,0.0
LiY2Hg,0.0
LiY2Al,0.0
LiY(CuP)2,0.0
LiWN2,0.0
LiY2Os,0.0
Lu12(MnC3)5,0.0
Mg(NiGe)6,0.0
Mg(Ni2O3)2,0.0
Mg(MoO3)4,0.0
Mg(NiO2)2,0.0
Mg(MoO2)4,0.0
Mg(MoO2)2,0.0
Mg(Mo3Se4)2,0.0
Mg(Mo3S4)2,0.0
Mg(MoO3)2,0.0
LiVCrO4,0.0
LiVCo3(PO4)6,0.0
LiVBO4,0.0
LiV8O16,0.0
LiV4O10,0.0
LiV3Zn2O8,0.0
Lu12Co31Sn16,0.0
Mg(TiS2)4,0.0
Mg(TiS2)8,0.0
Mg(VS2)2,0.0
Mg(VS2)4,0.0
Mg(ZnSb)2,0.0
Mg10B16Ir19,0.0
Mg11(Al2Cu)6,0.0
Mg11Cu2O13,0.0
Mg14AlCd,0.0
Mg13Au41,0.0
Mg13Al16,0.0
Mg13(NbH16)2,0.0
Mg149Cd,0.0
Mg(TiS2)3,0.0
Mg(NiO2)4,0.0
Lu2TlZn,0.0
Lu2TlIn,0.0
Lu2TlHg,0.0
Lu2TlCd,0.0
Lu2TlAg,0.0
Mg(TiS2)2,0.0
Mg(SiNi)6,0.0
Mg(RuO4)2,0.0
Lu2TiCuO6,0.0
Mg14AlCrO16,0.0
Mg14CdBiO16,0.0
Mg14CdCuO16,0.0
Mg14CdFe,0.0
Mg14CdMo,0.0
Mg14CoCu,0.0
Mg14CoBi,0.0
Mg14CdW,0.0
Mg14CdSi,0.0
Mg14CdSb,0.0
Mg14BiW,0.0
Mg14AlSb,0.0
Mg14AlNi,0.0
Mg14AlMo,0.0
Mg14AlSi,0.0
Mg14AlGa,0.0
Mg14AlFe,0.0
Mg14AlSn,0.0
Mg14AlZnO16,0.0
Mg14AlSiO16,0.0
Mg14AlW,0.0
Mg14AlVO16,0.0
Lu2TcPd,0.0
Lu2TcAu,0.0
Lu2TcAg,0.0
Lu2CdOs,0.0
Lu2Co12P7,0.0
Lu2Co17,0.0
Lu2Co2O7,0.0
Lu2Co3Si5,0.0
Lu2Co7,0.0
Lu2CoCu,0.0
Lu2CoGe6,0.0
Lu2CoIr,0.0
Lu2CoOs,0.0
Lu2CoRh,0.0
Lu2CoRu,0.0
Lu2Fe17C3,0.0
Lu2Fe17,0.0
Lu2Fe14C,0.0
Lu2Fe12P7,0.0
Lu2CuRu,0.0
Lu2CuPt,0.0
Lu2CuPd,0.0
Lu2CuOs,0.0
Lu2CuIr,0.0
Lu2Cr2C3,0.0
Lu2CuRh,0.0
Lu2CdHg,0.0
Lu2C3,0.0
Lu2AgIr,0.0
Lu2AgHg,0.0
Lu2AgAu,0.0
Lu2(Ni7B2)3,0.0
Lu2(Ni5B3)3,0.0
Lu2AgOs,0.0
Lu2(B2Rh3)3,0.0
Lu2(Al3Rh)3,0.0
Lu14(InCo)3,0.0
Lu2Fe2Si2C,0.0
Lu2Al3Co,0.0
Lu2C,0.0
Lu2BeOs,0.0
Lu2B6Rh,0.0
Lu2AgRu,0.0
Lu2AlZn,0.0
Lu2AlOs,0.0
Lu2AlNi2,0.0
Lu2AlCo3,0.0
Lu2Al3Fe,0.0
Lu2AlTc,0.0
Lu2Fe3Si5,0.0
Lu2FeB6,0.0
Lu2NiRu,0.0
Lu2NiOs,0.0
Lu2NiIr,0.0
Lu2NiGe6,0.0
Lu2OsPd,0.0
Lu2Ni12P7,0.0
Lu2Mo2C3,0.0
Lu2MnS4,0.0
Lu2MnCoO6,0.0
Lu2Mn3Si5,0.0
Lu2Mn17C3,0.0
Lu2Ni12As7,0.0
Lu2Mn12P7,0.0
Lu2Pd2Pb,0.0
Lu2Si5Ir3,0.0
Lu2Si4Mo3,0.0
Lu2RuRh,0.0
Lu2PdAu,0.0
Lu2RuPt,0.0
Lu2ReC2,0.0
Lu2Pt,0.0
Lu2PdRu,0.0
Lu2PdRh,0.0
Lu2RuAu,0.0
Lu12Fe2Pb3,0.0
Lu2MgTc,0.0
Lu2GaTc,0.0
Lu2GaRu,0.0
Lu2GaOs,0.0
Lu2GaCu,0.0
Lu2GaAg,0.0
Lu2Ga8Fe,0.0
Lu2Ga8Co,0.0
Lu2Ga3Ni14,0.0
Lu2Ga3Ni,0.0
Lu2Ga3Co,0.0
Lu2FeS4,0.0
Lu2Ga5Ni12,0.0
Lu2MgRu,0.0
Lu2In,0.0
Lu2InAu2,0.0
Lu2MgIn,0.0
Lu2MgHg,0.0
Lu2MgGe2,0.0
Lu2MgCd,0.0
Lu2MgAl,0.0
Lu2InAg,0.0
Lu2InPd2,0.0
Lu2InNi2,0.0
Lu2InHg,0.0
Lu2InCu2,0.0
Lu2IrPd,0.0
Mg2CrFe3S8,0.0
Mg2CrN2,0.0
Mg6GaCu,0.0
Mg6GaFe,0.0
Mg6GaNi,0.0
Mg6GaSi,0.0
Mg6MnAl,0.0
Mg6MnBi,0.0
Mg6MnCd,0.0
Mg6MnSb,0.0
Mg6MnNi,0.0
Mg6MnCu,0.0
Mg6MnCrO8,0.0
Mg6MnCoO8,0.0
Mg6GaCo,0.0
Mg6GaBi,0.0
Mg6CuNi,0.0
Mg6CuBi,0.0
Mg6CrSn,0.0
Mg6CrNiO8,0.0
Mg6CrGa,0.0
Mg6CrFeO8,0.0
Mg6CuNiO8,0.0
Mg6CuSb,0.0
Mg6FeSn,0.0
Mg6FeNi,0.0
Mg6FeCuO8,0.0
Mg6FeC,0.0
Mg6CuSn,0.0
Mg6CuSi,0.0
Mg6CrCoO8,0.0
Mg6MnZn,0.0
Mg6Sn2Ge,0.0
Mg6SnBi,0.0
Mg6TiBi,0.0
Mg6TiCrO8,0.0
Mg6TiCu,0.0
Mg6TiH16,0.0
Mg6VBi,0.0
Mg6TiZnO8,0.0
Mg6TiZn,0.0
Mg6TiVO8,0.0
Mg6SiSn,0.0
Mg6TiSb,0.0
Mg6TiNb,0.0
Mg6TiMnO8,0.0
Mg6SiSb,0.0
Mg6Ni16Ge7,0.0
Mg6Ni16As7,0.0
Mg6NbZn,0.0
Mg6NiSb,0.0
Mg6NbSn,0.0
Mg6NbH16,0.0
Mg6NbGa,0.0
Mg6NbBi,0.0
Mg6NiSn,0.0
Mg6Si7Ni16,0.0
Mg5Sb,0.0
Mg5Sc,0.0
Mg5Si6,0.0
Mg5Ti,0.0
Mg5Rh2,0.0
Mg5Pt,0.0
Mg5Pd2,0.0
Mg5Hg,0.0
Mg5Ge,0.0
Mg5Ga2,0.0
Mg5Ga,0.0
Mg5Cu,0.0
Mg5Cd,0.0
Mg5In,0.0
Mg5Pd,0.0
Mg5Ni9P7,0.0
Mg5In2,0.0
Mg5MnSb4,0.0
Mg5Tl2,0.0
Mg5Zn,0.0
Mg6CdSi,0.0
Mg6CdSb,0.0
Mg6CdIn,0.0
Mg6CdGa,0.0
Mg6CdFe,0.0
Mg6CdCuO8,0.0
Mg6CdCu,0.0
Mg6CdCo,0.0
Mg6CdSn,0.0
Mg6CoB,0.0
Mg6CrCd,0.0
Mg6CoSb,0.0
Mg6CoCuO8,0.0
Mg6CoCu,0.0
Mg6CoBi,0.0
Mg6CoNi,0.0
Mg6CdBi,0.0
Mg6AlCr,0.0
Mg6AlCoO8,0.0
Mg6AlCd,0.0
Mg6AlCu,0.0