formula,band_gap
LiFe8(O7F)2,0.0
LiFe8(O3F)4,0.0
LiFe7O7F,0.0
LiFe2(P2O7)2,0.0
LiFe2(CoO4)2,0.0
LiEuGe2,0.0
LiEuH3,0.0
LiEu3,0.0
LiEu2Tl,0.0
LiEu2RuO6,0.0
LiEu2IrO6,0.0
LiEu2Ir,0.0
LiFeAs,0.0
LiEuO2,0.0
LiFe(Si2O5)3,0.0
LiFe(PO3)4,0.0
LiEuYFeO6,0.0
LiEuTl2,0.0
LiEuSb,0.0
LiEuS2,0.0
LiFeCuS2,0.0
LiGa3,0.0
LiGa2Ru,0.0
LiGa2Rh,0.0
LiGa2Pd,0.0
LiGa2Ni,0.0
LiGa2Ir,0.0
LiGa,0.0
LiFeSiO4,0.0
LiFeS2,0.0
LiGa2Co,0.0
LiFePd2,0.0
LiGd2Os,0.0
LiGd2Al,0.0
LiGaRh2,0.0
LiGaAg2,0.0
LiGaPt2,0.0
LiGaPdF6,0.0
LiGaPd2,0.0
LiGaNi2,0.0
LiGaIr,0.0
LiGaGe,0.0
LiGaCu2,0.0
LiGaPt,0.0
LiLu2In,0.0
LiFeO3,0.0
LiFeP,0.0
LiFeNiO4,0.0
LiFeN,0.0
LiFeF5,0.0
LiFeF4,0.0
LiFeP4O13,0.0
LiFePO4,0.0
LiFePHO5,0.0
LiFePCO7,0.0
LiFeP2HO8,0.0
LiEu2Ge3,0.0
LiLu2Pd,0.0
LiMgPb2,0.0
LiMgPd2,0.0
LiMgSbPd,0.0
LiMgSbPt,0.0
LiMgSnAu,0.0
LiMgSnPd,0.0
LiMgTl2,0.0
LiMn(PO4)2,0.0
LiMn(SO4)2,0.0
LiMn10O20,0.0
LiMn2(BO3)2,0.0
LiMgIn2,0.0
LiMn16O32,0.0
LiMgCr7(SO4)12,0.0
LiMg6Sb,0.0
LiMg6Ni,0.0
LiMg6Mo,0.0
LiMg6MnO8,0.0
LiMg6Mn,0.0
LiMg6Ga,0.0
LiMg6Si,0.0
LiMg6Sn,0.0
LiMgCd2,0.0
LiMgAu2,0.0
LiMg9B20,0.0
LiMg7,0.0
LiMg6Zr,0.0
LiMg6Zn,0.0
LiMg6TiO8,0.0
LiMg6Ti,0.0
LiMg6Cu,0.0
LiMn2(CO4)2,0.0
LiMn2O4,0.0
LiMn2OF5,0.0
LiMn3(NiO4)2,0.0
LiMn3(PO4)3,0.0
LiMn3Al2(HO2)6,0.0
LiMn3O6,0.0
LiMn3O5F,0.0
LiMn3O5,0.0
LiMn3NiO8,0.0
LiMn2O3F,0.0
LiMn2(PO3)5,0.0
LiMn2O2F3,0.0
LiMn2Fe2(PO4)4,0.0
LiMn2F6,0.0
LiMn2Cu(RuO4)2,0.0
LiMn2(SO4)3,0.0
LiMg6Cr,0.0
LiMg,0.0
LiMg14Al,0.0
LiMg14B,0.0
LiMg14Bi,0.0
LiMg14Cd,0.0
LiMg14Co,0.0
LiMg14Cr,0.0
LiMg14Cu,0.0
LiMg14Ga,0.0
LiMg14SiO16,0.0
LiMg14Si,0.0
LiMg14Sb,0.0
LiMg14Ni,0.0
LiLuPt2,0.0
LiLuIn2,0.0
LiLuHg2,0.0
LiLuGe,0.0
LiLuTl2,0.0
LiLuAu2,0.0
LiLu3,0.0
LiLu2Tc,0.0
LiLu2Ru,0.0
LiLu2Re,0.0
LiLu4(CoO3)4,0.0
LiLuZnFeO4,0.0
LiMg14Sn,0.0
LiMg14Ti,0.0
LiMg2Zn,0.0
LiMg2Tl,0.0
LiMg2Pt,0.0
LiMg2Pd,0.0
LiMg2Pb,0.0
LiMg2Ni,0.0
LiMg2Mn3O8,0.0
LiMg2Ir,0.0
LiMg3O4,0.0
LiMg6Co,0.0
LiMg6Cd,0.0
LiMg6Bi,0.0
LiMg3(WO4)3,0.0
LiMg6Al,0.0
LiMg5,0.0
LiMg4SnO8,0.0
LiLu2Os,0.0
LiMg2Ge,0.0
LiMg2,0.0
LiMg17Al11,0.0
LiMg15,0.0
LiMg14Zr,0.0
LiMg14W,0.0
LiMg14V,0.0
LiMg2Ga,0.0
LiMg2Cd,0.0
LiMg2Au,0.0
LiMg2Ag,0.0
LiEu2Ga7,0.0
LiEu2Cr2O8,0.0
Li7Mn2(CoO4)3,0.0
Li7Mn3Fe(PO4)6,0.0
Li7Mn2N3,0.0
LiCa2Hg,0.0
LiCd4(TcO3)4,0.0
LiCdAg2,0.0
LiCdAu2,0.0
LiCdMoO5,0.0
LiCdPd2,0.0
LiCdSb,0.0
LiCe(MoO4)2,0.0
LiCe10(Pb3O)2,0.0
LiCe2Al,0.0
LiCe2Ga,0.0
LiCeMg30O32,0.0
LiCeHg2,0.0
LiCe2Ru,0.0
LiCe2Pb,0.0
LiCe2Os,0.0
LiCe2HO3,0.0
LiCeGe2,0.0
LiCd3,0.0
LiCaEuFeO6,0.0
LiCaGe2,0.0
LiCa2TeO6,0.0
LiCa2Rh,0.0
LiCa2Pb,0.0
LiCa2NiN2,0.0
LiCa2Ir,0.0
LiCa2Si3,0.0
LiCaMg14,0.0
LiCd2Rh,0.0
LiCd2Pt,0.0
LiCd2Pd,0.0
LiCd2Ni,0.0
LiCd2Cu,0.0
LiCd2Au,0.0
LiCd2Ag,0.0
LiCaSi2,0.0
LiCaPb,0.0
LiCaNiF6,0.0
LiCd,0.0
Li6V5O12,0.0
Li6VFe5O12,0.0
Li7(CoO3)2,0.0
Li7(Cu6S5)2,0.0
Li7(CuO2)6,0.0
Li7(Eu2Bi3)2,0.0
Li7(Ga3Te5)8,0.0
Li7(Mo3Se4)4,0.0
Li7(NiO2)10,0.0
Li7Co5O12,0.0
Li7B18O,0.0
Li7(SnO3)4,0.0
Li7(SbS)2,0.0
Li7(NiO2)9,0.0
Li7(NiO2)12,0.0
Li7(NiO2)11,0.0
Li6MnV3(PO4)6,0.0
Li6MnO6,0.0
Li6MnNi3(PO4)6,0.0
Li6Mn9O20,0.0
Li6Mn5O12,0.0
Li6Mn5FeO12,0.0
Li6Mn5CoO12,0.0
Li6Mn3V(PO4)6,0.0
Li6Mn5Ni3O16,0.0
Li6Nd6Sb(TeO8)3,0.0
Li6Ti7Cr5O24,0.0
Li6Ti15Co3O32,0.0
Li6Tb2O7,0.0
Li6SbS2,0.0
Li6Sb3S,0.0
Li6NbNi3(PO4)6,0.0
Li6Sb2S7,0.0
Li6Ni3Sn(PO4)6,0.0
Li6Ni2P(CO4)4,0.0
Li6RuN4,0.0
Li7Fe3O10,0.0
Li7Fe3(WO8)2,0.0
Li7CuSi2,0.0
Li7Fe3Sb(PO4)6,0.0
Li7CrN4,0.0
Li7Cr5O12,0.0
Li7Fe4NiO12,0.0
Li7Mn16O32,0.0
Li7Mn14O32,0.0
Li7Fe5O12,0.0
Li7Mn11(Si3O16)2,0.0
Li7Mg8Zn9,0.0
Li7Ge2,0.0
Li7FeO5F,0.0
Li7FeCo3(PO4)6,0.0
LiCeMg6O8,0.0
LiCuCSO7,0.0
LiCuF4,0.0
LiCuH4Cl3O2,0.0
LiCuPO4,0.0
LiCuCO3F,0.0
LiCuPH2O5,0.0
LiCuPCO7,0.0
LiCuBO3,0.0
LiCu5F12,0.0
LiCu5(PO4)2,0.0
LiCu4(PO4)3,0.0
LiCu5P3O13,0.0
LiCu3O4,0.0
LiCu3F7,0.0
LiCu6OF11,0.0
LiCuAu2,0.0
LiCu3(CO3)3,0.0
LiDySn2,0.0
LiEr2Al,0.0
LiEr2Au,0.0
LiEr2Os,0.0
LiEr2Rh,0.0
LiEr2Ru,0.0
LiEr2Tl,0.0
LiEr3,0.0
LiEr4(HCl)4,0.0
LiEr4Be4(SiO7)2,0.0
LiEr4Zr4O14,0.0
LiEu2Cd,0.0
LiEu(WO4)2,0.0
LiEu(SO4)2,0.0
LiEu(PO3)4,0.0
LiEu(MoO4)2,0.0
LiErTl2,0.0
LiErSn,0.0
LiErHg2,0.0
LiEr6Ta2O14,0.0
LiErSn2,0.0
LiDyAu2,0.0
LiCuPd2,0.0
LiCuRu2(RhO4)2,0.0
LiCuS2,0.0
LiCuSbO4,0.0
LiDy3,0.0
LiDy2Tl,0.0
LiDy2Tc,0.0
LiDy2Ru,0.0
LiDy2Rh,0.0
LiDy2Pt,0.0
LiDy2Nb2O8,0.0
LiDy2Ir,0.0
LiDy2In,0.0
LiDy2Al,0.0
LiCuTeO4,0.0
LiDy2Os,0.0
LiCo3CuO8,0.0
LiCo3NiO8,0.0
LiCo3P3O13,0.0
LiCo3Sb(PO4)6,0.0
LiCo4O5,0.0
LiCo5O7F,0.0
LiCo6O7,0.0
LiCo7O7F,0.0
LiCo7O8,0.0
LiCo8O9,0.0
LiCoAs,0.0
LiCoPCO7,0.0
LiCoOF2,0.0
LiCoOF,0.0
LiCo3(OF3)2,0.0
LiCoO2,0.0
LiCoN,0.0
LiCoCuO4,0.0
LiCo2Si,0.0
LiCo2P4H3O16,0.0
LiCo2OF5,0.0
LiCo(CO3)2,0.0
LiCeZn2,0.0
LiCeTi4O12,0.0
LiCeSn2,0.0
LiCeSi2,0.0
LiCeTl2,0.0
LiCo2(PO4)3,0.0
LiCo2OF3,0.0
LiCo2O3,0.0
LiCo2O2F3,0.0
LiCo2NiO6,0.0
LiCo2N3,0.0
LiCo2Ge,0.0
LiCo2(PO4)2,0.0
LiCo2CuO6,0.0
LiCo2C2O7,0.0
LiCoSnO4,0.0
LiCr(CoO3)2,0.0
LiCu2C2O7,0.0
LiCu2BiO4,0.0
LiCu2B2H8(ClO4)2,0.0
LiCu2(SO4)3,0.0
LiCu2(RhO2)4,0.0
LiCu2(CO3)2,0.0
LiCu(PO3)4,0.0
LiCrRh2,0.0
LiCrP4O13,0.0
LiCu3,0.0
LiCu2Sn,0.0
LiCu2Si,0.0
LiCu2F4,0.0
LiCu2Ge,0.0
LiCr2(PO4)3,0.0
LiCr2(SO4)3,0.0
LiCr2(PO4)2,0.0
LiCr2N3,0.0
LiCr2O4,0.0
LiCrCoO4,0.0
LiCr6O11,0.0
LiCr4O12,0.0
LiCr4InS8,0.0
LiCr4In4O12,0.0
Lu6(Ga3Co)7,0.0
Lu6AgTe2,0.0
Lu6Al43W4,0.0
Lu6Co30P19,0.0
Lu6CuTe2,0.0
Lu6FeBi2,0.0
Lu6GaNi2,0.0
Lu6InCo2,0.0
Lu6Mn23,0.0
Lu6MnBi2,0.0
Lu7(TeRh)2,0.0
Lu7(TePd)2,0.0
Lu7(NiTe)2,0.0
Lu5Zr3(Ni4As3)4,0.0
Lu6Ti4Al43,0.0
Lu6Sb2Mo,0.0
Lu6Pb5,0.0
Lu6Ni2Sn,0.0
Lu6Nb4Al43,0.0
Lu6MnSb2,0.0
Lu6Te2Au,0.0
Lu5Si3C,0.0
Lu5In4,0.0
Lu5Ge4,0.0
Lu5Ge3C,0.0
Lu5Ge3,0.0
Lu5Ga3,0.0
Lu5Ir2,0.0
Lu5Co19P12,0.0
Lu5Bi3,0.0
Lu5(TeAu)2,0.0
Lu5CuPb3,0.0
Lu7Te,0.0
Lu5Ir3,0.0
Lu5Ni19B6,0.0
Lu5Si3B,0.0
Lu5Si3,0.0
Lu5SbPd2,0.0
Lu5Sb3,0.0
Lu5Ru2,0.0
Lu5Pt3,0.0
Lu5NiPb3,0.0
Lu5Ni2Bi,0.0
Lu5(In2Pt)2,0.0
Lu8In3Co,0.0
LuAu2,0.0
LuAu4,0.0
LuB2Ir3,0.0
LuB2Os,0.0
LuB2Rh3,0.0
LuB2Ru3,0.0
LuB4,0.0
LuB4Os,0.0
LuBiPt,0.0
LuBiPd,0.0
LuBi,0.0
LuBe13,0.0
LuBPt2,0.0
LuBPd3,0.0
LuBC,0.0
LuB6,0.0
LuB4Rh,0.0
LuBRh3,0.0
LuAs,0.0
LuAlSi,0.0
LuAl3,0.0
LuAl2Ni,0.0
LuAl2,0.0
LuAl,0.0
LuAl3Fe7Si2,0.0
LuAgSn,0.0
LuAgPb,0.0
LuAgGe,0.0
LuAg3,0.0
Lu8Te,0.0
LuAl7Au3,0.0
LuAlPd,0.0
LuAlNi,0.0
LuAlFe,0.0
LuAlCu2,0.0
LuAlCu,0.0
LuAlB4,0.0
LuAlAu,0.0
LuAlAg2,0.0
LuAl7Fe5,0.0
LuAlCo,0.0
Lu5(In2Pd)2,0.0
Lu5(Ge5Rh2)2,0.0
Lu3Al2,0.0
Lu3AlC,0.0
Lu3AlNi8,0.0
Lu3Bi(Ru2O7)2,0.0
Lu3C4,0.0
Lu3Cd,0.0
Lu3Co,0.0
Lu3Co11B4,0.0
Lu3Cu11Si4,0.0
Lu3Fe2Si3,0.0
Lu3Ga,0.0
Lu3Ge3Ru2,0.0
Lu3Ge3Ir2,0.0
Lu3Ge13Ru4,0.0
Lu3Ge13Rh4,0.0
Lu3Ge13Os4,0.0
Lu3Ge13Ir4,0.0
Lu3Al,0.0
Lu3GaC,0.0
Lu3Ga8Ir3,0.0
Lu3Ga5,0.0
Lu3Ga9Pd2,0.0
Lu3(P3Pd10)2,0.0
Lu2Zn17,0.0
LiV3O4,0.0
LiV2Zn2(SiO5)2,0.0
Lu3Ge4,0.0
Lu2ZnAg,0.0
Lu2ZnCu,0.0
Lu3(GeRh)2,0.0
Lu3(CuSi)4,0.0
Lu3(CuGe)4,0.0
Lu2ZnTc,0.0
Lu2ZnAu,0.0
Lu2ZnPd,0.0
Lu2ZnOs,0.0
Lu2ZnIr,0.0
Lu2ZnGa,0.0
Lu2ZnPt,0.0
Lu3Hg,0.0
Lu3In,0.0
Lu4Ge6Rh7,0.0
Lu4Ge6Os7,0.0
Lu4Ga21Ni10,0.0
Lu4Ga12Pd,0.0
Lu4FeGe8,0.0
Lu4Ge6Ru7,0.0
Lu4CuGe8,0.0
Lu4CoSn8,0.0
Lu4CoB13,0.0
Lu4Co3,0.0
Lu4CdPd,0.0
Lu4C7,0.0
Lu4B3C4,0.0
Lu4Ge8Pd,0.0
Lu4Ge8Ru,0.0
Lu5(Ge5Ir2)2,0.0
Lu5(Co2Ge5)2,0.0
Lu4Zn5Ge6,0.0
Lu4V5B18,0.0
Lu4NiB13,0.0
Lu4Ni2C5,0.0
Lu4MgTi2O10,0.0
Lu4MgRh,0.0
Lu4MgGe4,0.0
Lu4Ni13C4,0.0
LuC2,0.0
Lu4(Al8Pt3)3,0.0
Lu3Tl5,0.0
Lu3Ni7B2,0.0
Lu3Ni2Ge3,0.0
Lu3MnFe3O10,0.0
Lu3Mn3Ga2Si,0.0
Lu3Mg2VS8,0.0
Lu3Mg2(SiO4)3,0.0
Lu3Mg,0.0
Lu3Ir,0.0
Lu3InN,0.0
Lu3Mg2MnS8,0.0
Lu3TlC,0.0
Lu3Pt,0.0
Lu3Tl,0.0
Lu3Pd4,0.0
Lu3Si13Ir4,0.0
Lu3Sc,0.0
Lu3S4,0.0
Lu3Ru,0.0
Lu3Pt4,0.0
Lu3Si13Os4,0.0
LuRh2,0.0
LuRh3,0.0
LuRh3C,0.0
LuRu,0.0
LuRu2,0.0
LuRu3C,0.0
LuS,0.0
LuS2,0.0
LuSb,0.0
LuSb3,0.0
LuSbRh2,0.0
LuSbRu2,0.0
LuSi2Ni,0.0
LuSi2,0.0
LuSe,0.0
LuRe2,0.0
LuScRu2,0.0
LuSc3(MnSi)4,0.0
LuPt,0.0
LuPd3,0.0
LuNiO3,0.0
LuNiGe3,0.0
LuNiGe2,0.0
LuNiGe,0.0
LuNiP,0.0
LuNi5Sn,0.0
LuNi4Sn,0.0
LuNi4B,0.0
LuNiPb,0.0
LuPd2Pb,0.0
LuPd,0.0
LuPb3,0.0
LuPb2,0.0
LuPaTc2,0.0
LuNiSn,0.0
LuPPd,0.0
LuP,0.0
LuOs2,0.0
LuO2,0.0
LuNiSn4,0.0
LuPPt,0.0
LuSiAg,0.0
LuSiIr,0.0
LuU4S5O4,0.0
LuUB8,0.0
LuZn,0.0
LuZn12,0.0
LuZn5,0.0
LuZnPd,0.0
LuZnPd2,0.0
LuZnPt,0.0
LuZnRh2,0.0
LuZnSn,0.0
LuZnSn2,0.0
Mg(Ag3O4)2,0.0
Mg,0.0
LuZrSb,0.0
LuZrRu2,0.0
LuZrCo2,0.0
LuTlRh2,0.0
LuSnRh2,0.0
LuSnPt,0.0
LuSnPd2,0.0
LuSnIr,0.0
LuSnRu2,0.0
LuSnAu,0.0
LuSn2,0.0
LuSiRu,0.0
LuSiRh,0.0
LuSiPt2,0.0
LuSiPt,0.0
LuSiAu,0.0
LuTaOs2,0.0
LuTc2,0.0
LuTiGe,0.0
LuTiFe11C,0.0
LuThTc2,0.0
LuThRu2,0.0
LuTaRu2,0.0
LuTh3,0.0
LuTh,0.0
LuTe3,0.0
LuTc2W,0.0
LuTh(BRh)8,0.0
LuNi2Sn,0.0
LuNi2,0.0
LuFe2Co2B,0.0
LuFe4(CuO4)3,0.0
LuFe4B,0.0
LuFe5P3,0.0
LuFeB4,0.0
LuFeCu,0.0
LuFeGe2,0.0
LuFeO3,0.0
LuGa,0.0
LuGa2,0.0
LuGa2Ni3,0.0
LuGa2Pd,0.0
LuGa3,0.0
LuGaPt,0.0
LuGaPd2,0.0
LuGaPd,0.0
LuGaNi2,0.0
LuFe2,0.0
LuGaCu2,0.0
LuGaCoO4,0.0
LuGaAu,0.0
LuGa5Co,0.0
LuGa4Ni,0.0
LuGaCuO4,0.0
LuCo4B,0.0
LuCo3P2,0.0
LuCo3,0.0
LuCo2,0.0
LuCo5P3,0.0
LuCdRh2,0.0
LuCdPd2,0.0
LuCdNi4,0.0
LuCdHg2,0.0
LuCdAg2,0.0
LuCd3,0.0
LuCdPt2,0.0
LuCo5Si3,0.0
LuCoC,0.0
LuCuSi,0.0
LuCuSb2,0.0
LuCuPb,0.0
LuCuAs2,0.0
LuCoB4,0.0
LuCoSi,0.0
LuCoO3,0.0
LuCoGe2,0.0
LuCoGe,0.0
LuCoC2,0.0
LuCoSn,0.0
LuGe2,0.0
LuGe2Ru,0.0
LuMgPd2,0.0
LuMgMnS4,0.0
LuMgCd2,0.0
LuMgRh2,0.0
LuMgAu2,0.0
LuMg3,0.0
LuMg2V3S8,0.0
LuMg2Ti3S8,0.0
LuMg2Sc,0.0
LuMg2Mn3S8,0.0
LuMgTiS4,0.0
LuMgTl2,0.0
LuNi,0.0
LuNbRu2,0.0
LuMnSn2,0.0
LuMnSi,0.0
LuMnRh2,0.0
LuMnO3,0.0
LuMgTl,0.0
LuMnIn,0.0
LuMn6GaGe5,0.0
LuMn6(Sn2Ge)2,0.0
LuMn4(CuO4)3,0.0
LuMgZn2,0.0
LuCd,0.0
LuIr,0.0
LuHfRu2,0.0
LuHfRh2,0.0
LuHfIr2,0.0
LuHfCo2,0.0
LuIn,0.0
LuH2,0.0
LuGeRh,0.0
LuGePt,0.0
LuGePd2,0.0
LuGePd,0.0
LuGeIr,0.0
LuGeAu,0.0
LuIn3,0.0
LuInRh2,0.0
LuInPt2,0.0
LuInPd2,0.0
LuIn2Pd,0.0
LuInNi4,0.0
LuInNi,0.0
LuInCu2,0.0
LuInCo4,0.0
LuInAu2,0.0
LuInAg2,0.0
LuInNi2,0.0
LiV2O4,0.0
LiNiAsO4,0.0
LiNiCO4,0.0
LiNiH2,0.0
LiNiN,0.0
LiNiO2,0.0
LiNiP2O7,0.0
LiNi9S10,0.0
LiNiP,0.0
LiNi2O3,0.0
LiNi(WO4)2,0.0
LiNi(SO4)2,0.0
LiNi(PO3)5,0.0
LiNi2(PO4)2,0.0
LiNiPCO7,0.0
LiNi2P3O11,0.0
LiNi9O10,0.0
LiNi6O7,0.0
LiNi5(P2O7)4,0.0
LiNi2P2O9,0.0
LiNi3P4O15,0.0
LiNi3P2,0.0
LiNi3,0.0
LiNi2Sn,0.0
LiNi3P3O13,0.0
LiNiPO4F,0.0
LiNiS2,0.0
LiPm3,0.0
LiPmAu2,0.0
LiPmGa2,0.0
LiPmHg2,0.0
LiPmIn2,0.0
LiPmTl2,0.0
LiPmZn2,0.0
LiPr2Al,0.0
LiPr2Ir,0.0
LiPr2IrO6,0.0
LiPr2Os,0.0
LiPr2Pa2O8,0.0
LiPr2Ru,0.0
LiPrTl2,0.0
LiPrSn2,0.0
LiPrSn,0.0
LiPrHg2,0.0
LiPrGe2,0.0
LiPrGe,0.0
LiPm2Si,0.0
LiPrAu2,0.0
LiPr2Zn2(PO)2,0.0
LiPr2Ta2Cl2O7,0.0
LiPr3,0.0
LiPm2Rh,0.0
LiPm2Pt,0.0
LiP3(WO6)2,0.0
LiOsO3,0.0
LiO8,0.0
LiPWO5,0.0
LiNpRu2,0.0
LiNpRh2,0.0
LiPaPt2,0.0
LiPb,0.0
LiPm2Pb,0.0
LiPm2Os,0.0
LiPm2Ir,0.0
LiPaRu2,0.0
LiPm2Al,0.0
LiPd7,0.0
LiPd3,0.0
LiPd,0.0
LiPb3,0.0
LiPdAu2,0.0
LiNi(PO3)4,0.0
LiMnF4,0.0
LiMnF6,0.0
LiMnN2,0.0
LiMnO2,0.0
LiMnSiO4,0.0
LiMnSe2,0.0
LiMnSb,0.0
LiMnPt2,0.0
LiMnPd2,0.0
LiMnF3,0.0
LiMnP2O7,0.0
LiMnP,0.0
LiMnO3,0.0
LiMnCuO4,0.0
LiMn6O5F7,0.0
LiMn6O12,0.0
LiMn6(OF2)4,0.0
LiMn5O8,0.0
LiMn5O7F,0.0
LiMn5O5F,0.0
LiMn4O8,0.0
LiMn4(P2O7)3,0.0
LiMn4(CoO6)2,0.0
LiMnCoO4,0.0
LiMn9Se10,0.0
LiMn8O16,0.0
LiMn7O7F,0.0
LiMn7O14,0.0
LiMnTe2,0.0
LiNd2IrO6,0.0
LiNd2Ga,0.0
LiNd2Al,0.0
LiNd2(HO)6,0.0
LiNd2OsO6,0.0
LiNbVO4,0.0
LiNbRu2,0.0
LiNbPO5,0.0
LiNd14(Cu3O14)2,0.0
LiNd2Rh,0.0
LiNi(CO3)2,0.0
LiNdZn2,0.0
LiNdTl2,0.0
LiNdSn,0.0
LiNd2Ru,0.0
LiNdSe2,0.0
LiNdHg2,0.0
LiNd6(CuO6)2,0.0
LiNdIn2,0.0
LiNbO3,0.0
LiNb2(PO4)3,0.0
LiNb(PO3)4,0.0
LiMo6(Se3S)2,0.0
LiMo(PO4)2,0.0
LiMnVP2(O4F)2,0.0
LiMnVP2(HO5)2,0.0
LiMoN2,0.0
LiNbP2O7,0.0
LiNbCo3(PO4)6,0.0
LiNbAs2,0.0
LiNb8O10,0.0
LiNb3O7F,0.0
LiNb2Te4Cl10O,0.0
LiNb7O12,0.0
LiPt,0.0
LiPt2,0.0
LiPt3,0.0
LiTi3O4,0.0
LiTi3O6,0.0
LiTi3P3O13,0.0
LiTi3Zn2O8,0.0
LiTi4O8,0.0
LiTi6O12,0.0
LiTiO2,0.0
LiTiNiO4,0.0
LiTiH6(OF3)2,0.0
LiTiCl3,0.0
LiTi8O16,0.0
LiTi2O4,0.0
LiTi(SiO3)2,0.0
LiTi(PO3)4,0.0
LiThRh2,0.0
LiThHg2,0.0
LiThAu2,0.0
LiTh2Tc,0.0
LiTePd2,0.0
LiTe3,0.0
LiTcO3,0.0
LiThPt2,0.0
LiTi2NbCu2O9,0.0
LiTi2Ir,0.0
LiTmSn2,0.0
LiTmRh2,0.0
LiTmPd2,0.0
LiTmIn2,0.0
LiTmTl2,0.0
LiTmHg2,0.0
LiTmAu2,0.0
LiTm3,0.0
LiTm2Tc,0.0
LiTm2Ru,0.0
LiTm2Rh,0.0
LiTm2Pt,0.0
LiTm2Os,0.0
LiTmU2S3O2,0.0
LiV2NiO6,0.0
LiV2N3,0.0
LiV2F6,0.0
LiV2(SiO4)2,0.0
LiV2(SO4)3,0.0
LiV2(PO4)3,0.0
LiV18O44,0.0
LiV(PO3)4,0.0
LiV(CuO3)2,0.0
LiV(CO3)2,0.0
LiV2(PO4)2,0.0
LiTbTl2,0.0
LiTiSiO4,0.0
LiTiSe2,0.0
LiTiRh2,0.0
LiTiTe2,0.0
LiTl,0.0
LiTm2Au,0.0
LiTm2Al,0.0
LiTlPd2,0.0
LiTl6C2(O3F)2,0.0
LiTiVO4,0.0
LiTl4(NiO3)4,0.0
LiTbSn2,0.0
LiTbHg2,0.0
LiSc2Rh,0.0
LiSc2Ru,0.0
LiSc2Tc,0.0
LiScAu2,0.0
LiScHg2,0.0
LiScI3,0.0
LiScIn2,0.0
LiScMo3O8,0.0
LiScPd2,0.0
LiScPt2,0.0
LiScRh2,0.0
LiSi,0.0
LiSi2(AgO)8,0.0
LiSm2Ga,0.0
LiSm2Al,0.0
LiSiRu2,0.0
LiSc2Pt,0.0
LiSiRh2,0.0
LiSiNiO4,0.0
LiSiNi2,0.0
LiSc2Pd,0.0
LiSc2Os,0.0
LiRhF6,0.0
LiRh3,0.0
LiRh2Pb,0.0
LiRuN,0.0
LiReO3,0.0
LiPtF6,0.0
LiPt7,0.0
LiPt3O4,0.0
LiRuN2,0.0
LiSc2Al2(CO)2,0.0
LiSc2(AgO2)2,0.0
LiSbPO5,0.0
LiSbAu,0.0
LiSb3,0.0
LiSb(PO3)5,0.0
LiSbRh2,0.0
LiSm2Os,0.0
LiSm2Ru,0.0
LiSm3,0.0
LiSnRh2,0.0
LiSnPt2,0.0
LiSnP2O7,0.0
LiSnIr2,0.0
LiSnAu2,0.0
LiSnAu,0.0
LiSn4Ru,0.0
LiSnN,0.0
LiSn4Ir,0.0
LiTa3N4,0.0
LiTbGe,0.0
LiTb5Sn3,0.0
LiTa2O6,0.0
LiTb2Ir,0.0
LiTaRu2,0.0
LiTaIr2,0.0
LiTbIn2,0.0
LiSn4Au3,0.0
LiSn3,0.0
LiSmTl2,0.0
LiSmHg2,0.0
LiSmGe2,0.0
LiSn,0.0
LiSmGe,0.0
LiSm4Tm4O12,0.0
LiSm4Ti2Mn2O12,0.0
LiSm3Bi(Ru2O7)2,0.0
LiSn3(P3O10)2,0.0
LiSn2P5O16,0.0
LiSn2(SO4)3,0.0
Li6Mn3Ni(PO4)6,0.0
Li4MnCo2O7,0.0
Li4MnCo2NiO8,0.0
Li4Mn8O13F3,0.0
Li4Mn5Te3O16,0.0
Li4Mn5Sn3O16,0.0
Li4Mn5SbO12,0.0
Li4MnCu3(PO4)4,0.0
Li4V2Fe3Cu3O16,0.0
Li4V3(CO3)6,0.0
Li4V3CoO10,0.0
Li4V3CoO8,0.0
Li4V3CrO8,0.0
Li4V3Cu3(SbO8)2,0.0
Li4V3Cu3(WO8)2,0.0
Li4V3Fe2Sb3O16,0.0
Li4V3Ni3(SnO8)2,0.0
Li4V3NiO8,0.0
Li4V3O8,0.0
Li4V2Co3Ni3O16,0.0
Li3MnSiO5,0.0
Li3MnP2O9,0.0
Li4V5Cu3O16,0.0
Li4V3P8O29,0.0
Li4V3OF11,0.0
Li4V2Co3Cu3O16,0.0
Li4V2(PO4)3,0.0
Li4TiCo3O8,0.0
Li4Ti5VO12,0.0
Li4Ti5Cr3O16,0.0
Li4Ti5Co3O16,0.0
Li4Ti4V4CrO18,0.0
Li4Ti4Cr5O18,0.0
Li4Ti4Co5O18,0.0
Li4Ti3VO8,0.0
Li4Ti4Mn4FeO18,0.0
Li4V(TeO4)3,0.0
Li4TiV8O18,0.0
Li4TiV5O12,0.0
Li4TiMn5O12,0.0
Li4TiMn3(PO4)4,0.0
Li4TiFe4(Co2O9)2,0.0
Li4TiFe3Cu2(PO4)6,0.0
Li4TiCu3(PO4)4,0.0
Li4TiCr3O8,0.0
Li4TiMn3O8,0.0
Li3Ni2P2(O4F)2,0.0
Li3Ni2SnO6,0.0
Li3Ni3(PO4)4,0.0
Li3Ni3O3F5,0.0
Li3Ni3SbO8,0.0
Li3Ni7O12,0.0
Li3Ni8(OF3)4,0.0
Li3SiNi3O8,0.0
Li3RuO4,0.0
Li3RuN2,0.0
Li3PrSb2,0.0
Li3PrBi2,0.0
Li3Rh,0.0
Li3Nb4SnO12,0.0
Li3Nb4FeO12,0.0
Li3Nb2CrO6,0.0
Li3Nb(CuO2)4,0.0
Li3Nb4VO12,0.0
Li3MnV2O6,0.0
Li3MnV4O12,0.0
Li3NbFe3O8,0.0
Li3Ni2(CO3)4,0.0
Li3Ni11As7,0.0
Li3Ni(PO4)2,0.0
Li3Ni(BO3)2,0.0
Li3Ni,0.0
Li3Nb6O11,0.0
Li3NdGa8,0.0
Li3Nd,0.0
Li3NbV4O8,0.0
Li3NbV2O6,0.0
Li3NdSb2,0.0
Li4Nb3V5O16,0.0
Li4NbCo5O12,0.0
Li4NbNi3O8,0.0
Li4NbO4,0.0
Li4NbTe2WO12,0.0
Li4Nd3Ge4,0.0
Li4Ni2(PO4)3,0.0
Li4Ni2P4H3O16,0.0
Li4Ni3BiO8,0.0
Li4Sb(TeO4)3,0.0
Li4Pr3Ge4,0.0
Li4Ni8O9F7,0.0
Li4Ni7O11,0.0
Li4Ni5SbO12,0.0
Li4Ni5Sb3O16,0.0
Li4Nb3V3(NiO8)2,0.0
Li4Ni5O9,0.0
Li4Ni3SnO8,0.0
Li4Ni3Sn2Sb3O16,0.0
Li4Ni3SbO8,0.0
Li4Ni3O6F,0.0
Li4Ni5BiO12,0.0
Li4Nb3V3(CoO8)2,0.0
Li4Nb3TeO12,0.0
Li4Nb3Ni3(SbO8)2,0.0
Li4Mo3O8,0.0
Li4MnV3(P2O7)4,0.0
Li4Nb(FeO4)3,0.0
Li4MnP2O9,0.0
Li4MnNi3O8,0.0
Li4MnNb(WO6)2,0.0
Li4MnFe5O12,0.0
Li4MnFe3(BO3)4,0.0
Li4MnCu3O8,0.0
Li4MnNi5O12,0.0
Li4SbS4,0.0
Li4Nb3Fe2Ni3O16,0.0
Li4Nb3Cu3(TeO8)2,0.0
Li4Nb3Cr5O16,0.0
Li4Nb3Cr2Fe3O16,0.0
Li4Nb2V3Sn3O16,0.0
Li4Nb2V3Cu3O16,0.0
Li4Nb2Fe3Cu3O16,0.0
Li4Nb2Co3Sb3O16,0.0
Li4Nb2Fe3Sb3O16,0.0
Li4Si2O7,0.0
Li4Ti3Fe2Co3O16,0.0
Li4Ti3Cu3(WO8)2,0.0
Li4Ti3Fe3(CuO8)2,0.0
Li4Ti3Cu3(TeO8)2,0.0
Li4Ti3Cr3(WO8)2,0.0
Li4Ti3Cr3(SbO8)2,0.0
Li4Ti3Cr2Fe3O16,0.0
Li4Ti3Cr2Co3O16,0.0
Li4Ti3(CoO4)3,0.0
Li4Ti3Fe5O16,0.0
Li4Ti3Nb5O16,0.0
Li4Ti3Nb3V2O16,0.0
Li4Ti3Nb3Cr2O16,0.0
Li4Ti3Nb2V3O16,0.0
Li4Ti3Nb2Cr3O16,0.0
Li4Ti3Mn3V2O16,0.0
Li4Ti3Mn3(TeO8)2,0.0
Li4Ti3Mn2V3O16,0.0
Li4Ti3Mn2Nb3O16,0.0
Li4Ti3Mn2Cu3O16,0.0
Li4Ti3MnO8,0.0
Li4MnCo5O12,0.0
Li4Ti2Fe3Cu3O16,0.0
Li4Ti2Cu3Sb3O16,0.0
Li4Ti2Cr3Sn3O16,0.0
Li4Ti2Cr3Ni3O16,0.0
Li4Ti2Co3Sb3O16,0.0
Li4Ti2Co3Ni3O16,0.0
Li4Sn2P4H3O16,0.0
Li4Sm3Ge4,0.0
Li4Ti2Mn3Sb3O16,0.0
Li4Ti2Si4O13,0.0
Li4Ti2Ni3Sb3O16,0.0
Li4Ti2Nb3V3O16,0.0
Li4Ti2Mn4Cr3O18,0.0
Li4Ti2Mn4(FeO6)3,0.0
Li4Ti2Mn3Sn3O16,0.0
Li4Ti2Nb3Cu3O16,0.0
Li3SiO4,0.0
Li3SmBi2,0.0
Li3SmSb2,0.0
Li3Sn,0.0
Li7MnAs4,0.0
Li6Ca17Hg9,0.0
Li6Bi3P8O29,0.0
Li6Bi2O7,0.0
Li6Al13Cu8,0.0
Li6(NiO2)5,0.0
Li6Bi5O14,0.0
Li6(CoO2)5,0.0
Li7MnNi3(PO4)6,0.0
Li7TiCr3(PO4)6,0.0
Li7V3Ni(PO4)6,0.0
Li7V3P8O29,0.0
Li7V5O12,0.0
Li7ZrO6,0.0
Li8(CoO2)5,0.0
Li8(FeO2)5,0.0
Li8Ag5,0.0
Li8BiO6,0.0
Li8BiS6,0.0
Li8Fe7Cu(PO4)12,0.0
Li8Fe7Co(PO4)12,0.0
Li8Fe3Co5O16,0.0
Li8EuSn7,0.0
Li7Ti7O16,0.0
Li8CoNi9O20,0.0
Li8Co3NiO8,0.0
Li8CaSn7,0.0
Li7Ti5O12,0.0
Li7Ti5Mn12O32,0.0
Li7Ti3(SiO6)2,0.0
Li7NiN4,0.0
Li7Nb8O24,0.0
Li7Nb12O24,0.0
Li7Ni13O24,0.0
Li7RuN4,0.0
Li7Ti12O24,0.0
Li7Ti12Fe5O32,0.0
Li7Ti11O24,0.0
Li7Sb2S,0.0
Li7Sn2,0.0
Li7Si3,0.0
Li7Si2(NiO4)3,0.0
Li7Si2,0.0
Li5V7O12,0.0
Li5V6O5F19,0.0
Li5Mn3O8,0.0
Li5Mn3V2O10,0.0
Li5Mn4O8,0.0
Li5Mn5(SbO6)2,0.0
Li5Mn6(BO3)6,0.0
Li5Mn3(SbO5)2,0.0
Li5Mn3(PO4)4,0.0
Li5Mn(Ni2O5)2,0.0
Li5Mn(CoO4)2,0.0
Li5Mn2P2(CO7)2,0.0
Li5Mn2Fe(BO3)4,0.0
Li5Mn2Cu5O12,0.0
Li5Mn2Cu3O10,0.0
Li5TiMn9O20,0.0
Li5Ti8O16,0.0
Li5Ti2Cu5O12,0.0
Li5Ti12O24,0.0
Li5SiAs3,0.0
Li5OsN4,0.0
Li5Ta12O32,0.0
Li5NiO3F2,0.0
Li5TlIn,0.0
Li5V5O12,0.0
Li5V5Cr2O12,0.0
Li5V5Cl16,0.0
Li5Tl2,0.0
Li5V3P8O29,0.0
Li5V12O32,0.0
Li8Fe7Ni(PO4)12,0.0
Li5Ni9P7,0.0
Li5Ni9As7,0.0
Li5Mn8(BO3)8,0.0
Li5Mn8Fe11O32,0.0
Li5Mn7Fe3O20,0.0
Li5Mn6O16,0.0
Li5Mn7O15,0.0
Li5MnO4,0.0
Li5MnO5,0.0
Li5Ni9(P2O7)8,0.0
Li5Ni7O12,0.0
Li5Ni5(SbO6)2,0.0
Li5Nb2V5O12,0.0
Li5Nb2V3O10,0.0
Li5Nb2Fe5O12,0.0
Li5Nb2Cu3O10,0.0
Li5Mo15S19,0.0
Li5Nb2Ni3O10,0.0
Li8Fe7Sn(PO4)12,0.0
Li6Fe3Co7O20,0.0
Li6Fe3Ni(PO4)6,0.0
Li6Fe3O8,0.0
Li6Fe3P8O29,0.0
Li6Fe3Sb3O16,0.0
Li6Fe5(P2O7)4,0.0
Li6Fe5CuO12,0.0
Li6Fe5NiO12,0.0
Li6Fe5O12,0.0
Li6Fe7O15,0.0
Li6Fe9CoO20,0.0
Li6FeNi9O20,0.0
Li6FeO5F,0.0
Li6Mn2P(CO4)4,0.0
Li6Mn17O40,0.0
Li6Fe3Co5O16,0.0
Li6Mn15O32,0.0
Li6MgNi7O16,0.0
Li6La3Nb2O12,0.0
Li6IrN4,0.0
Li6FeO6,0.0
Li6Fe3Co3O16,0.0
Li6Fe2C4SO16,0.0
Li6Co3Ni(PO4)6,0.0
Li6Co3Ni5O16,0.0
Li6CoCl8,0.0
Li6Fe2B4SO16,0.0
Li6Eu5Sn9,0.0
Li6CuS4,0.0
Li6CuF8,0.0
Li6Cu9(PO4)8,0.0
Li6Cu5F14,0.0
Li6CrS4,0.0
Li6Cr5O12,0.0
Li6CoOF6,0.0
Li6CoCu3(PO4)4,0.0
Li6Cu2C4SO16,0.0
Li8TbO6,0.0
Li8Ti16CuS32,0.0
Li8Ti7Nb6O30,0.0
Li8TiFe7(PO4)12,0.0
Li8TiNi7O16,0.0
Li8VFe7(PO4)12,0.0
Li8Zr7Fe(PO4)12,0.0
Li9(RuO3)10,0.0
Li95Mn16O64,0.0
Li9Co7O16,0.0
Li8SbS6,0.0
Li8Sb7S19,0.0
Li8PrO6,0.0
Li8Mn5Fe3(BO3)8,0.0
Li8Mn3Fe5(BO3)8,0.0
Li8Mn2O9,0.0
Li8Mn13Cr3O32,0.0
Li8Mn6(FeO6)3,0.0
Li8IrO6,0.0
Li8FeS6,0.0
Li8FeNi9O20,0.0
Li8La4TiNb7O28,0.0
Li8Pb3,0.0
Li8Nd7Ge10,0.0
Li8NbS6,0.0
Li8NbO6,0.0
Li8NO3,0.0
Li8MnNi7O16,0.0
Li8MnNi7(PO4)12,0.0
Li8MnFe7(PO4)12,0.0
Li8MnCo7(PO4)12,0.0
Li8Mn7Sb(PO4)12,0.0
Li8Fe7Sb(PO4)12,0.0
Li9Fe7(PO4)12,0.0
Li9Fe4(SiO5)4,0.0
Li9Fe4(BO3)8,0.0
Li9Ge4,0.0
Li9Cu2(HO2)4,0.0
Li9Cr3(WO4)7,0.0
Li9Cr12Ni7O48,0.0
Li9Fe3(WO4)7,0.0
Li9Mn12Cu3O32,0.0
Li9Mn10O20,0.0
Li9Mn21O40,0.0
Li9Mn15O32,0.0
Li9Mn7(PO4)12,0.0
Li9Mn3N4,0.0
Li3Ti3(PO4)4,0.0
Li3Ti3Fe(PO4)6,0.0
Li3Ti4MnO12,0.0
Li3Ti4O8,0.0
Li3Ti6Co3O16,0.0
Li3Ti6O13,0.0
Li3TiV2O6,0.0
Li3TiN2,0.0
Li3TiMn4O8,0.0
Li3TiCo3O8,0.0
Li3Ti8O16,0.0
Li3Ti6Zn3O16,0.0
Li3Ti2V5O12,0.0
Li3Ti(FeO2)4,0.0
Li3Ti(CoO2)4,0.0
Li3Ti(NiO2)4,0.0
Li3Tb4ZnSn8,0.0
Li3Sn3(PO4)4,0.0
Li3Sn2(PO4)3,0.0
Li3Sn11Pd4,0.0
Li3Sn(PO4)2,0.0
Li3Sn(PO3)6,0.0
Li3Sn3Pt2,0.0
Li3TiV4O8,0.0
Li3Ti(NiO3)2,0.0
Li3Ti2(GeO4)3,0.0
Li3Ti2NiO6,0.0
Li3Ti2NbO6,0.0
Li3Ti2MnO6,0.0
Li3Ti2FeO6,0.0
Li3Ti2CuO6,0.0
Li3Ti2CrO6,0.0
Li3Ti(PO4)2,0.0
Li3Ti2(PO4)3,0.0
Li3Ti2(NiO4)2,0.0
Li3TlPCO7,0.0
Li4(CoO2)7,0.0
Li3ZrO3,0.0
Li3Zn3(Ge3O8)2,0.0
Li4(CuO2)3,0.0
Li3Zn2Fe19O32,0.0
Li3Zn,0.0
Li3YSb2,0.0
Li3YBi2,0.0
Li3Y14Ti14(S2O5)7,0.0
Li3Y(NiO3)2,0.0
Li4(FeO2)9,0.0
Li49Cu8N19,0.0
Li47Mn5As19,0.0
Li4(NiO2)7,0.0
Li4AlNi3O8,0.0
Li3V2NiO6,0.0
Li3V2(GeO5)2,0.0
Li3V(SO4)3,0.0
Li3V(PO4)2,0.0
Li3V(FeO2)4,0.0
Li3V(CoO2)4,0.0
Li3V2(GeO4)3,0.0
Li3V3(BO5)2,0.0
Li3V3P8O29,0.0
Li3V8ZnO16,0.0
Li3V6O13,0.0
Li3V6Fe4(CuO12)2,0.0
Li3V4NiO12,0.0
Li3V4FeO8,0.0
Li3V4FeO12,0.0
Li3V4(PO4)6,0.0
Li3V4O8,0.0
Li4ZnCd3,0.0
Li5(Cu2P3)2,0.0
Li5(CuGe)2,0.0
Li5(CuO2)3,0.0
Li5(NiO2)4,0.0
Li5(NiO2)6,0.0
Li5(NiO2)8,0.0
Li5(YSb2)2,0.0
Li5Al(Co2O5)2,0.0
Li5Bi2(BO3)4,0.0
Li5Co3O8,0.0
Li5Co2O2F5,0.0
Li5Co2Cu3O10,0.0
Li5Co2Cu2(PO4)4,0.0
Li5Co(Ni2O5)2,0.0
Li5Ce5(SiN3)4,0.0
Li5Br3O2,0.0
Li4VS4,0.0
Li4VNi3O8,0.0
LiBi2P5O18,0.0
LiBi2As2(PbO5)2,0.0
LiBi3PbWClO8,0.0
LiBi2(PO4)3,0.0
LiBi2(IO)2,0.0
LiBi(PO4)2,0.0
LiBi,0.0
LiBePt2,0.0
LiBi4O7,0.0
LiBiPd2,0.0
Li4VF7,0.0
Li4VCr3O8,0.0
Li4V5SnO12,0.0
LiCa2Ge3,0.0
LiCa2Ga,0.0
LiCa2Al,0.0
LiC6,0.0
LiC12,0.0
LiBiS2,0.0
LiCa2Cd,0.0
Li5FeS4,0.0
Li5Fe6(BO3)6,0.0
Li5Fe3(SbO5)2,0.0