formula,band_gap
LuMg149,0.3246000000000002
NaLi2Bi,0.3250999999999999
Mn(AlTe2)2,0.3251999999999997
KCe(PO3)4,0.3253999999999992
Na2Ca4SiGe4S11O48,0.3254999999999999
V4ZnCu3O14,0.3258000000000001
Mg30NbSnO32,0.3260000000000005
NaMg30SiO32,0.3260000000000005
LiPrPCO7,0.3264
Mg2Cr3MoS8,0.3264000000000004
YPS,0.3264000000000004
Sr5(VN3)2,0.3265000000000002
Ca5Sc2(CoO6)2,0.3268999999999997
Ti7(Fe3O8)3,0.3273000000000001
Sr2Co(BrO)2,0.3275000000000001
NdPS,0.3278999999999996
K2NaCa2TiSi7O20,0.328
Tm3CrS6,0.3280000000000003
Li3CuOF3,0.3282
Ta8Pb6O25,0.3283000000000005
ZnBP2PbO9,0.3284
LiAs,0.3285
Na5Bi2As(CO4)4,0.3287
Sc4C3,0.3287000000000004
Ca6La4Ti5Cr5O30,0.3288999999999999
K4ZnBi2,0.3290999999999999
CdHgO2,0.3291
DyTeAs,0.3292000000000001
Mg30CuSiO32,0.3292999999999999
Na4Be2Si6SnO20,0.3294000000000001
ZrSe2,0.3296000000000001
Na6Ti2Zn2Si3(SO8)3,0.3296999999999999
Na2CoBAsO7,0.3303
Ge3Rh2Se3,0.3303000000000002
MgNi2(SbO3)4,0.3304
Rb2Mn3O4,0.3306
Na12SnGe8,0.3306
TbNiSb,0.3309999999999995
Mg149Si,0.3310000000000004
Rb2CuBiI6,0.3311000000000001
Mg14CoBiO16,0.3311999999999999
LiNiCSO7,0.3314
Co4OF11,0.3314000000000001
Ta2Ni3Se8,0.3317000000000001
CuNiSbS3,0.3319999999999998
MnV4Fe(Pb2O9)2,0.3325
Na6Fe2P4HO17,0.3326
Ba3Sb2O,0.3327999999999997
Ca3GaAs3,0.3329999999999997
NaSeO3,0.333
Li3CuF6,0.3333000000000001
PrNiBi,0.3337999999999992
Er3Cu3Sb4,0.3338999999999998
Cs2TiCu3F12,0.3339
UCl5,0.3341
KVCl3,0.3342
Rb(Nb3Te4)2,0.3343999999999996
BaMg30CrO32,0.3345000000000002
Na2ZrSi3O10,0.3347
K(MoO2)4,0.3347999999999995
LiTb2RuO6,0.3348
V3Pb5F19,0.3349999999999999
Li4Mn3V3Cr2O16,0.3355000000000001
LiLa2OsO6,0.3355000000000006
PuH16C3N4O11,0.3356
Li4Cu(PO3)6,0.3361
MnP2(HO4)2,0.3361
Mg14VCrO16,0.3361999999999998
Li5Ti4Co3O16,0.3364
Si3NiP4,0.3365
TiGeTe6,0.3366999999999995
Pr3Bi4Au3,0.3370999999999995
NdSeO,0.3370999999999995
Mo8O23,0.3370999999999997
Sr3VN3,0.3372999999999999
SrLaMgRuO6,0.3373999999999997
Ca14GaAs11,0.3374000000000001
Zn2CdN2,0.3376000000000001
CeH3(SO4)3,0.3377999999999996
NdMoO5,0.3380999999999999
Co2(SnSe)3,0.3384
TmCuTe2,0.3384999999999998
NaUVO7,0.3384999999999999
UCrO4,0.3386999999999993
Eu2TaAlO6,0.3394000000000003
Na5Zr2MnF15,0.3394999999999997
LaPS,0.3396999999999996
Sb5(PO4)6,0.3398000000000003
CaMn3P3O13,0.3398999999999998
Mg(Ag2O3)2,0.3400000000000001
La2CeSi2S8I,0.3400000000000007
NaPrDyFeO6,0.3403999999999998
NaLaDyFeO6,0.3405
V5Ni(PO4)6,0.3405
LaCeSi2(BO5)2,0.3406000000000002
Cs(Nb3Te4)2,0.3407999999999997
NaLa6OsI12,0.3408999999999995
Tb2Se3,0.3411000000000004
Li4Ti2Fe4(CoO6)3,0.3412000000000001
TlIn5Se7,0.3414000000000001
Sr10IrN8,0.3414999999999999
Rb2CrBrCl3,0.3415999999999999
CaGaSiH,0.3416000000000005
Ba7U7O24,0.3416000000000005
Fe7(SiO3)8,0.3417999999999996
Ba3GaSb3,0.3418999999999998
P2Pd,0.3418999999999998
CsMg30SiO32,0.3419000000000007
K9Ce(PS4)4,0.3420999999999998
SrLa3Mn3CrO12,0.3421000000000003
Nd3Bi4Au3,0.3422
Li5Co3(SnO5)2,0.3422999999999998
K2Ba3Sb4,0.3424
NaMg3Nb(SO4)6,0.3425
CaCuAsO5,0.3425000000000002
NdTeBrO3,0.3426999999999998
Sm3Bi4Au3,0.3427999999999995
Ge3(Te3As)2,0.3427999999999995
NaSn,0.3428999999999997
MgHg(SbO3)2,0.3429999999999999
Ca2CuSbO6,0.3431999999999999
Na3BiAsCO7,0.3433000000000001
Li5CuP3O11,0.3435000000000001
PrBiO4,0.3445999999999998
KZnSb,0.3446000000000002
CaMnSe2,0.3446999999999995
Li8Mn7Sn(PO4)12,0.3447
Sb2Os,0.3447000000000013
Na4Fe2C4SO16,0.3449
Ti2Co3Te3O16,0.3454000000000001
LiErS2,0.3455999999999997
Mg30NbCrO32,0.345600000000001
Y11Ta5O28,0.3456999999999999
TlCuHSO5,0.3456999999999999
LiBiTe2,0.3456999999999999
Gd3MnGaS7,0.3460999999999998
SrEuYSbO6,0.3461999999999996
In2HgS4,0.3467000000000002
Na2TiSi4H2O13,0.3467999999999999
NaPrEuWO6,0.3468999999999997
Zn3Se3O10,0.347
Zn3Co4(SbO6)2,0.3470999999999997
Na6GaAs3,0.3476999999999999
PtI3,0.3481000000000001
Sr3N2,0.3481000000000001
Li5Mn17(SiO16)2,0.3482000000000003
NdCrB4,0.3486000000000002
ZnCo3P3O13,0.3491999999999999
MgCu2(RhO2)4,0.3494999999999999
U2Co3O8,0.3494999999999999
Sr3InN3,0.3495999999999997
LaTlO3,0.3496999999999994
SrYMg30O32,0.3497000000000003
Sr4Ca(FeO2)5,0.3503000000000003
Cu2Bi8Pb3Se3S13,0.3505000000000002
LiMn3(O2F)2,0.3506
Li5AgF8,0.3514000000000001
Cs3CeCl6,0.3518000000000003
Li5Co3(NiO5)2,0.3519000000000001
CaCu2(As2O7)2,0.3520999999999999
Bi2Sb2(TeSe)3,0.3521999999999998
Al2Co3GeO8,0.3521999999999998
Fe7(SiO6)2,0.3522000000000007
Li4Mn3V3(SbO8)2,0.3523
Ti2HCSe4Cl16O5,0.3528
K8MgTi2O8,0.3530999999999999
Cs2CuBiI6,0.3530999999999999
Ba8U2PdSe16,0.3532999999999999
CaMg30AlO32,0.3535999999999983
Mn2SiS4,0.3536000000000001
FeBi4S7,0.3537999999999996
UH14C6(NO2)6,0.3539
NaLi5N2,0.3542
BaPdO5,0.3542999999999998
Co(H3Cl)2,0.3544
Ti3VSn2(PO4)6,0.3546
ZnCu3(P2O7)2,0.3547000000000002
Sr18Ca3Cr14O56,0.3547000000000002
Bi4O5,0.3547000000000002
Sr6MgMo3O14,0.3548
ZnSbO3,0.3548
CuPNO5,0.355
MgAl2SiHO7,0.3550999999999997
MgCoH16(ClO2)4,0.3551999999999999
Na4Si5Sn2O17,0.3552000000000002
MgTiCo5O12,0.3553999999999999
Sm2MnSbO7,0.3559999999999998
MnRe2(HO5)2,0.3565
CeHfF7,0.3565
SrEuMgWO6,0.3566000000000002
LiP4(Br3O)4,0.3568
Nd3Cu3Bi4,0.3575999999999997
Ag3AsS4,0.3576000000000001
Rb2GaCuF6,0.3578000000000001
SrSbSe3,0.3580999999999998
Li2Ta2W2O13,0.3581999999999999
Nb6(Pb2O5)5,0.3586999999999998
ZnSnS3,0.3587999999999995
NdBiO4,0.3588
K3CeCl6,0.3591999999999999
Rb4HfS4O17,0.3596999999999999
K3Np(MoO5)2,0.3597000000000001
Re3Br7,0.3599
La4ZnCu2MoO12,0.3599999999999994
Zr6O11,0.3600000000000003
Li4Mn3V2Co3O16,0.3603
LiCe(PO3)4,0.3603000000000005
MgCu2(SnO4)2,0.3605999999999998
ScAgO3,0.3611999999999999
Sn5(TeO6)3,0.3612000000000002
Lu13Zn58,0.3612000000000002
Na2SbAu,0.3617999999999997
ErTeAs,0.3619000000000003
SrCaTi(PO4)2,0.3620000000000001
NaZnSiO4,0.3621999999999999
Li4Nb3V2Ni3O16,0.3624
LiV3O6,0.3624999999999998
NpI2O9,0.363
Mg2Ga3MoS8,0.3632000000000004
Na4Sc2(PO4)3,0.3633999999999995
MgSi2(AgO)8,0.3638999999999996
RbCr4O8,0.3641000000000001
BaMg149,0.3643999999999998
Na2FeCl4,0.3649
MgTiN2,0.3650000000000002
Sb4Au(Xe2F11)2,0.3651
Cd2Sb6S11,0.3651999999999997
Sr3TiRuO7,0.3658000000000001
VCu12As3S16,0.3658999999999999
PW4Cl11,0.3659000000000003
Ta2Zn(CuO4)2,0.3660000000000001
Rb2GaAgBr6,0.3661
PdSeS,0.3662000000000001
Na10Ca4Si5Sn4S7O48,0.3663
Mn2TeSO8,0.3664
MoW2(Se2S)2,0.3664
Na2V2F7,0.3671
FePO4,0.3671999999999999
Nd2EuBeO5,0.3672000000000004
Rb2MnHgF6,0.3673
TePdI2,0.3673000000000002
Li9TiMn3(PO4)6,0.3675999999999995
Sr5(SnP3)2,0.3676000000000003
Te7WCl5O,0.3680000000000003
Tl2CdSnTe4,0.3681000000000001
Sr4Tm8MgO16,0.3682000000000007
SrLaCuSbO6,0.3682999999999996
K3Ce(AsO4)2,0.3684999999999991
NbV3O8,0.3686000000000002
Na3Al3Si3O14,0.3687
CrClO,0.3688000000000002
Pr2MnRhO6,0.3691999999999993
Na6Mg2Ti2Si3(SO8)3,0.3691999999999997
SmI3O10,0.3692000000000002
CaAlSiH,0.3693999999999997
ZnCu2GeS4,0.3693999999999997
ScAlCO,0.3694999999999995
V4CuO11,0.3697
Tm4C7,0.3698000000000006
RbAu,0.3698999999999999
P2Rh,0.3704999999999998
NpH6Cl2O13,0.3708
MgNb4(CoO6)2,0.371
Ti3Sn5S12,0.3710000000000004
Na6Zn3As4O19,0.3712999999999999
Na4Al6ClO12,0.3719
NaNdS2,0.3721000000000001
Li10Mn3Cr2Ni3O16,0.3721999999999998
BaSnO3,0.3723999999999998
Cd4TeSe3,0.3725
BaPr(SnS3)2,0.3729000000000004
Sr15Pd5O24,0.3731
Ba5(Ga3H)2,0.3734999999999999
KPb,0.3734999999999999
Re2S2NCl11,0.3737
Co2(GeSe)3,0.3737000000000003
NaEuF4,0.374
Sc6C2I11,0.3740999999999999
Zn3Ga3N5,0.3742000000000001
BaSbTe3,0.3742999999999998
Ba11(CN5)2,0.3746
Mn5(PO5)4,0.3747
Ba3Sn2,0.3747000000000002
PuP2H6CO8,0.3748
Sr18Co14O45,0.3753999999999999
NaMg6SbO8,0.3759000000000005
EuP7,0.3760000000000003
ZrGeTe4,0.3761999999999998
Cs2CuCl4,0.3762999999999999
SrEuHfSnO6,0.3763000000000005
LiFeCo3O8,0.3771
MnOF2,0.3771
NbSbRu,0.3772999999999999
BaGd2CuO5,0.3772999999999999
Si3Ru2,0.3774000000000015
Rb2SbAuCl6,0.3774999999999999
Dy3SbO3,0.3776000000000001
Sr2Fe2O5,0.3776999999999999
RbBi,0.3777000000000001
Li7Mn3P3(CO7)3,0.3777999999999999
Li3UO4,0.3780000000000001
TbCrB4,0.3781000000000007
UP3H10ClO8,0.3782999999999998
Co2Ag3SbO6,0.3795000000000001
Sr4CaSm2Ta2O12,0.3796999999999997
Li8Mn13Fe3O32,0.3800000000000003
SmTeAs,0.3803000000000001
NaPrS2,0.3803999999999998
V2Si4O11,0.3803999999999998
Sr9(CrN4)2,0.3805999999999998
Mg4SiGe,0.3806000000000002
CaV(GeO3)2,0.3807
Sr2InOsO6,0.3809000000000004
Zn3Cu2(GeO4)3,0.3811
BaLaZnRuO6,0.3811999999999997
Pr2B12Br2O27,0.3813
Rb(Nb3S4)2,0.3814000000000002
MgW2(SCl4)2,0.3822
BaLaMnMoO6,0.3823999999999996
NaIn(MoSe)6,0.3823999999999996
GdY3(FeO3)4,0.3826
BaZnAgF7,0.3827
Mg149Pb,0.3828
Sr2Y2Ni2O7,0.3833999999999999
Fe2P3O10,0.3833999999999999
Ba10MgAs6(ClO12)2,0.3835999999999999
LiCaUF8,0.3838999999999999
BaCu2SnS4,0.3842999999999996
NaHfCuSe3,0.3845
ScTeRh,0.3846000000000007
Sr2CuTeO2,0.3849999999999998
Tl5Se2Br,0.3853999999999997
Na2Cd2O3,0.3854999999999999
KMgBi,0.3854999999999999
LiNi2P5O16,0.3856
Sr5Ca3Si4,0.3858999999999999
MgFeCuAs2PbO10,0.3859000000000003
Li9Cr4P4(CO7)4,0.3859999999999997
Li9Mg(Ni6O13)2,0.3863999999999996
Na2MgMn2O4,0.3865000000000003
SrMgCoO3,0.3867999999999996
Rb2Mn3S4,0.387
RbCuSb2H2Se4O,0.3872999999999997
Cs2MnHgF6,0.3873999999999999
ZnCuH3ClO3,0.3873999999999999
UH18N5F7,0.3875000000000002
Eu2MnWO6,0.3875999999999999
K2MoO3F4,0.3876000000000001
Zn2Ni3O8,0.3885999999999998
LuCuTe2,0.3889000000000004
CaCeN2,0.3891999999999997
In2Cu3(SeO3)6,0.3894999999999999
MgMn4(NiO6)2,0.3895999999999999
Co(W3Cl7)2,0.3896000000000001
K2LiInAs2,0.3896999999999999
Zn3Cr2O7,0.3900000000000001
Te3As2,0.3901000000000003
Li3MnV3O8,0.3901000000000003
V3FeO8,0.3901999999999996
Cs4FeO3,0.3902999999999998
Ba2CdAs2,0.3902999999999998
Tm(CuTe)3,0.3903000000000007
CsCeMg30O32,0.3906
Mo2W(Se2S)2,0.3909
K(Nb3Se4)2,0.3909000000000002
Sr2YMn2AlO7,0.3918999999999997
Na6UH24C5O27,0.3919000000000001
V4FeCuO12,0.3923999999999998
Ba2RuN2,0.3923999999999998
Tm4MnS7,0.3925
Bi4(TeSe)3,0.3925
Sr2PbN2,0.3925
ErCuTe2ClO6,0.3927
Mn(SbSe2)2,0.3928000000000002
MgTa2(CuO4)2,0.3933000000000002
Ga5CuSe8,0.3934999999999999
Sr2BiAu,0.3936000000000001
Mg3Fe2O7,0.3942000000000001
LiCoPO4,0.3943000000000003
K2CeS3O13,0.3944999999999999
Sr3P2,0.3946
DyCuTe2ClO6,0.3946
Na3Sb,0.3946
Sr5Ca3Fe7CoO20,0.3948
Pu(MoO4)2,0.3953000000000002
Na4Mg(NiO3)2,0.3955000000000002
CuAg2(PO3)4,0.3956999999999999
Sn3Te3Ir2,0.3959999999999999
Sn4GeTe4Se,0.3964999999999996
BaCoO2,0.3967
Rb2As3,0.3968
NpH28C12(N2O3)6,0.3968999999999999
Fe2GeS4,0.3972999999999995
MgFe(SbO3)4,0.3975999999999997
Zn(BiO2)2,0.3976999999999995
ZrSe3,0.3979000000000003
Sr3LiRuO6,0.399
Rb(Nb3Se4)2,0.3993000000000002
NaCa2Ge2PS5O24,0.3994
Li4Ti5Mn3O16,0.3997000000000001
CaCu3(SnO3)4,0.3997000000000001
LiSm2RuO6,0.3999000000000001
Ca8Be5Al3Si18(HO14)4,0.4000000000000001
KLaS2O9,0.4000999999999999
PdSe2,0.4001000000000001
Ba2VMoO6,0.4002999999999996
Rb2CuMoBr6,0.4005000000000001
Ca3SbAs,0.4005999999999998
Sr20V15O49,0.4006999999999996
K2CuSbBr6,0.4006999999999998
Cu2SiHgS4,0.4010999999999995
TiFe2Si,0.4015999999999984
W6CCl16,0.4016000000000002
LiTlO2,0.4020000000000001
Ta3ZnFe3(O6F)2,0.4022000000000001
RbVCl3,0.4023000000000003
V2Cd(PO5)2,0.4026999999999998
CuAsPbO5,0.4026999999999998
SbRhSe,0.4032999999999997
Na3P,0.4033
ReCl4O,0.4034
Ag4Sn2(HgSe3)3,0.4034999999999999
Mn3Fe(PO4)4,0.4038000000000001
Mg(BeAs)2,0.4041999999999994
BaCeNbInO6,0.4042000000000003
Si3As4,0.4047
Li9V2P4HO18,0.4047
Ba8Mn6Co2ClO22,0.4049
RbPb,0.4050000000000002
Li5Ni3O5F3,0.4051999999999998
Ba3(Si2P3)2,0.4052999999999995
AgSnF6,0.4055999999999999
LiZnSb,0.4057000000000004
NaGa2P2O9,0.4061
Mg6MnCdO8,0.4061000000000003
Li4Ti3Mn3(SnO8)2,0.4062999999999999
Ga5CuTe8,0.4065999999999996
Sr5P3O13,0.4068
CaCrO3,0.4069000000000002
Cs(Bi2Te3)2,0.4072000000000004
Sr3TiSi4O15,0.4074
Sm6Mg(Sb5O12)2,0.4074999999999997
Ga2Ag2Se3S,0.4080000000000001
K5SnSb3,0.4081000000000001
SiGe,0.4089
Na4Sc2Si3Ge2(SO8)3,0.4092
Np2Tc4O23,0.4096999999999999
V3(PO4)4,0.4099999999999999
In7GeIrO8,0.4102999999999994
Cs2TaCuF6,0.4107999999999998
SnBi4Te7,0.4109999999999996
BaV2P4O17,0.411
LiCrPO4,0.4112
Sr2CePrCu3(PbO5)2,0.4114000000000004
Li4Ti2Mn5O12,0.4115999999999999
Cs2TlInH6,0.4116999999999997
Ba2DyGaTe5,0.4117999999999999
Mo9O26,0.4122000000000003
EuHo2O4,0.4124000000000007
Sc3Al3C2O5,0.4127
Ba3NaSi2B7O20,0.4129
Li3La14(CuO7)4,0.4129999999999993
Li3V5Cr2O12,0.4130000000000002
Mg30CrCdO32,0.4136999999999995
Ba2Zn3(PO)2,0.4140000000000001
Sr2GaSn2O7,0.4140000000000001
Li11(MoO2)12,0.4143999999999996
V3(HO4)2,0.4144000000000001
Ge5Te4Se,0.4144000000000005
Ba6Na2V2Ru2O17,0.4144999999999998
BaAs2,0.4144999999999998
Na4Nb2Zn2Si3(SO8)3,0.4144999999999998
NaLaVWO6,0.4148000000000005
SrGaSnH,0.4150999999999998
Cu8SiSe6,0.4151999999999995
Sr3BN3,0.4152
V12Ag5O32,0.4155
La5Cu4As4(ClO2)2,0.4155000000000006
Mg149Sn,0.4155999999999999
ZnP2PdO7,0.4155999999999999
V2P2H6PbO14,0.4157999999999997
Sr5As3O13,0.4161000000000001
Mn2BiO5,0.4161999999999999
LaNb7O12,0.4162999999999996
Li8Fe3Co7O20,0.4165000000000001
Mg30NbNiO32,0.4165999999999998
Na2Mg(FeS2)2,0.4165999999999998
Ba4Zr3S10,0.4167
SrGaSiH,0.4169
EuEr2O4,0.4169
Ti3Cr(PO4)6,0.4171
Co2(SnTe)3,0.4171000000000004
MgCrP2S7,0.4171999999999998
Zn3Cu2(SiO4)3,0.4172000000000002
Na2AsAu,0.4175
Mg2TaAgO6,0.4176000000000002
TaCuS3,0.4180000000000001
KTaTe3,0.4180000000000001
CsH24Ru(SO10)2,0.4185999999999999
Ba2ErGaTe5,0.4189000000000002
Sr8MgMn6O20,0.4194
Nd2MnRhO6,0.4194000000000004
LiEu4C3(IN2)3,0.4196
ThH20C4S2N8O15,0.4196
V3Fe2CuO12,0.4196999999999999
H4S4N,0.4198
CuBi(PSe3)2,0.4199000000000001
HfTlCuSe3,0.4199999999999999
CaCo2(P2O7)2,0.4199999999999999
SrCa5N4,0.4205000000000001
SrEuGdSbO6,0.4206000000000003
K4Zn2Sn21,0.4207999999999998
Na2Pd3O4,0.4208000000000003
PdS2,0.4209999999999998
Rb3P,0.4215
Sr3AsN,0.4218000000000002
Bi4Te7Pb,0.4221000000000003
KNdFeBiO6,0.4222000000000001
Ba2YGaTe5,0.4222000000000001
NaSmEuWO6,0.4222999999999999
Na4Cu4H18C8O23,0.4223999999999999
Y4Ge(O4F)2,0.4224
Ba2InOsO6,0.4224000000000005
SnIr2Se5,0.4225000000000003
BaNaSb,0.4228999999999998
CuSb6(SO8)2,0.423
NaSi2O5,0.423
La2MgGeO6,0.4232999999999993
Nd14Cl32O,0.4233000000000002
ZrTiS4,0.4236
Li2Cu(WO4)2,0.4236999999999997
KCu3Te2,0.4237999999999999
Ba3V2S4O3,0.4239000000000001
Mo3W(SeS3)2,0.4241000000000001
ScNb(NiSn)2,0.4245999999999998
LiNd2RuO6,0.4246000000000003
BeAlSiO5,0.4247999999999998
Mn5CrO8,0.4247999999999998
Li4Nb3V2Fe3O16,0.4249
Na2Mg2Si3Sn6(S3O16)3,0.4251
Ni(WO4)2,0.4255
Li5Co4(SiO4)4,0.4256
Ca2TaNiO6,0.4256999999999999
CdCoF5,0.4256999999999999
PbSe,0.4256999999999999
NaCuCSO7,0.4258
Na2Sn2O3,0.4260999999999999
Na2Cu(SeO5)2,0.4265
BaEuHfZrO6,0.4265999999999996
Eu6Mg7H26,0.4268
Y2CrFeO6,0.4268999999999998
YZrO3,0.4270000000000005
Mg2Sc3MoS8,0.4270999999999993
MgTe,0.4271000000000002
Li4Ti3Co3(SbO8)2,0.4271000000000002
Si4Pb2O11,0.4272
Zn3Co2(Si2O7)2,0.4272999999999998
RbSm2Cl5,0.4274000000000004
Rb2SnTe5,0.4276
Np(MoO4)2,0.4279000000000001
MgMn5Cr(PO4)6,0.4283000000000001
Ca2LaRuO6,0.4284999999999996
Li4Ti5V3O16,0.4286000000000003
Rb9Fe2Se7,0.4288
U(RhO3)2,0.4288999999999996
SiSn,0.4291999999999998
Na4Sb2C4SO16,0.4292000000000002
EuCO3,0.4292999999999995
LiS,0.4295
Y2Pt2S7,0.4295
Tb2MnSbO7,0.4295999999999997
Li4Fe3Ni2Sb3O16,0.4298999999999999
LiCo2(CO3)3,0.4303999999999999
SrEuHfZrO6,0.4306000000000001
Li4V5Sb3O16,0.4306999999999998
Mg2CoSbO6,0.4306999999999998
LiCuSO4F,0.4309
Rb3Ru2N(Cl4O)2,0.4309999999999999
Ba(ScTe2)2,0.431
MgCo2P2(O4F)2,0.4310999999999998
Mg2Fe9O13,0.4310999999999998
Cs2BiAuBr6,0.4311
Na4IrO4,0.4312
Ca2VIrO6,0.4312000000000004
Li10Mn2Fe3Ni3O16,0.4317999999999999
Ba2Cu2Te4Br2O11,0.4324000000000003
Mg4(BiO2)9,0.4326000000000003
FeP2,0.4327000000000005
Na5Mn7O15,0.4331
Li2CoSiO4,0.4331
KLaV4O12,0.4331
LaCeSb2(SBr)4,0.4331999999999993
NaFe7(PO4)6,0.4333
Li9(CoO4)2,0.4337
Na4Mg2Nb2Si3(SO8)3,0.4337000000000002
Y2MnSbO7,0.4340999999999999
Zr3Ni3Sb4,0.4341999999999997
MgMn2Co5O12,0.4342000000000001
KLaNbWO6,0.4343000000000003
Pd(N3O7)2,0.4344
Zn2CoSbO6,0.4345000000000003
Cs3Nb2I9,0.4345999999999996
Li6Nb3V3O16,0.4364000000000003
Fe13(SnO10)2,0.4364999999999996
ZnCu(MoO4)2,0.4366
RbUB5O11F,0.4367999999999999
LiV(PO4)2,0.4369
In2Ag2GeSe6,0.4369999999999998
LiGeTe2,0.4371
Sn3Ir2Se3,0.4375999999999997
Bi2TeSe2,0.4376999999999995
Na3Sr3GaAs4,0.4377
Li9V8F48,0.4379000000000002
V2F7,0.4380999999999999
Ba4La4Cu4(BO6)3,0.4382000000000001
Si2Sb15O28,0.4383000000000003
MgZnCu2SnS4,0.4386000000000001
Cs2AgSbI6,0.4386999999999998
NdGaSb2,0.4386999999999998
Li6NbCr3(PO4)6,0.4386999999999998
V5(BO5)2,0.4389000000000003
Mg14VSiO16,0.4389000000000003
NaCa3RuO6,0.439
La3CrS6,0.439
Si(Hg2S3)2,0.4391
KLaPdO3,0.4392
Li3V2(OF)3,0.4393
Na2Y4Si3Ge4(S3O16)3,0.4395
Er7CoI12,0.4398999999999997
KNd3Te8,0.4398999999999997
CaCo3P3O13,0.4400999999999999
Sr5(ReN3)2,0.4401000000000001
Na4CuO3,0.4404999999999999
NaCaGeP(SO6)2,0.4409
Cs6GaSb3,0.4411
Sr(PIr)2,0.4416000000000002
Li5Ti2Co3O10,0.4417
RbAg7S4,0.4418000000000002
KNaMg14O15,0.4420999999999999
Na8V2O7,0.4420999999999999
Ca3MnCoO6,0.4420999999999999
Nd3MnAlS7,0.4429999999999996
Li2V3(CO3)6,0.4431
LiUO3,0.4431000000000002
Na2Mg3Sn(SO4)6,0.4434000000000002
Te4Pb5Se,0.4436
AgCl,0.4437999999999997
Li6CrCo3(PO4)6,0.4438
Ag2HgGeS4,0.4441000000000001
Li5Nb2Co3O10,0.4444999999999997
Rb3CrF7,0.4444999999999999
RbNb4Cl11,0.4449999999999998
LiPW4O13,0.4454000000000002
MnZnS2,0.4455
Sr(InAs)2,0.4455999999999998
LiMg14MnO16,0.4456000000000006
Li4VCr(TeO6)2,0.4456999999999995
Li4Ti2Co3O10,0.4457
LiBi(PdO2)2,0.4459999999999997
SmPS,0.4463999999999997
Mn3Co2(PO5)4,0.4463999999999999
Na5Sc(C2O7)2,0.4464
Na18Mg16Nb8Si9(S3O16)9,0.4464000000000001
RbCu2H3(SeO5)2,0.4465999999999999
ZnSiSn3S5O24,0.4468000000000001
Li4V3Ni3(SbO8)2,0.4476
MgV2Cr2O8,0.4476999999999997
Mg3CuO4,0.4478999999999997
Li5V18O44,0.4479999999999999
Bi4Se3N2,0.4481000000000001
Sr2CaCu6(BO3)6,0.4482000000000004
Sr(ScTe2)2,0.4482000000000008
Mg3Cr6(FeO6)4,0.4483999999999999
As2Ru,0.4492000000000002
MnCu2SiSe4,0.4495
Li5Mn3Cu2(PO4)6,0.4498
Li2Co2SiO6,0.4498999999999999
CsSnI3,0.4499999999999997
V3Zn(P2O7)2,0.4500999999999999
NiMo4O15,0.4503
Ba2NaCu3S5,0.4504000000000001
TcP3,0.4506000000000014
TaTiZn(PO4)3,0.4513000000000002
Na2MgMn2O8,0.4516
NaMnCuSe2,0.4518
Zn(Fe2O3)4,0.4520999999999997
Cd3Se4,0.4522
SrBO3,0.4523999999999999
SrCa7Ti3Mn5O20,0.4525000000000001
SrCu3(SnO3)4,0.4531
MoO3,0.4534
Gd3BeCrS7,0.4537000000000004
RbEuCl3,0.4541999999999997
KH4O4F,0.4542
RbUO3,0.4542000000000001
Sr24Ni19O54,0.4546000000000001
Li8Cr3SbO12,0.4548000000000001
Tb2EuS4,0.455
Li2VCrO4,0.4553000000000002
MoWSeS3,0.4556
K6Te2P6(H4O11)3,0.456
LiV2(OF)3,0.4563999999999999
Sn4Te5Pb,0.4565000000000001
NaCu(PO3)3,0.4566000000000001
MnCdS2,0.4568999999999996
LiVF5,0.4572999999999999
K3NaNp4H4(S2O13)2,0.4573
V3Si3O10,0.4574999999999996
SrLa3(NiO4)2,0.4575999999999993
Na2Sr3As4,0.4575999999999998
Li6CrO4,0.4576000000000002
NbTeI3,0.4577999999999997
ZrFeCl6,0.4578000000000001
Li8Cr2O9,0.4582999999999999
In2Cu2SiS6,0.4584000000000001
Na2Cu5(Si2O7)2,0.4584999999999999
Na3Ca3AlSb4,0.4586000000000001
Li4V2CrTeO12,0.4586999999999999
Mn5As4(H11O13)2,0.4588000000000001
K3Sm4(CuTe2)5,0.4588999999999998
Na2CuSi3O8,0.4591
LiAgF6,0.4592
Np(WO4)2,0.4592999999999998
SrP,0.4594
Li4MnNi5(PO4)6,0.4596
KNaCaSi8Ni5O24,0.4603000000000001
ZnCu2(BO3)2,0.4604999999999997
KCoPO4,0.4605000000000001
Si5(PbN4)2,0.4607999999999999
Rb5GeP3,0.4614
Na4Cu(AsO4)2,0.4615999999999998
MgCoBiO5,0.4618000000000002
TlPt2Se3,0.4619999999999997
Al6B5O18,0.4632
Li4V3Cr5O16,0.4634999999999998
SbP3C(NCl5)3,0.4643
Li3FeBO5,0.4643
Ag2GeS3,0.4646000000000003
BaCuPClO4,0.4649999999999998
Ba11(Nb3S14)2,0.4653
Na6Ca2Ti2Si3(SO8)3,0.4654999999999998
CuHgSeBr,0.4656000000000002
MgV3(OF)4,0.4656000000000002
Th(As3Os)4,0.4657
Na2PrN5O16,0.4663
K4Li3Mn2O8,0.4663000000000001
MgNiH3,0.4669999999999996
Y2Mn3O9,0.4674
TbCu(BO2)5,0.4677000000000002
BiI4,0.4682
HfMg30CdO32,0.468300000000001
Na2H12SO11,0.4683999999999999
Tl2GeTe3,0.4684999999999997
Li3Cr4O8,0.4685000000000001
Tm2Cu(B2O5)2,0.4687000000000001
Li2V3BiO8,0.4689999999999998
Rb2CoH12(SeO7)2,0.4690000000000001
Ti4Fe(BiO3)6,0.4692999999999996
CuH3C3O4,0.4692999999999999
Eu2ZnWO6,0.4695
Mg14FeBO16,0.4707000000000008
Zn13Sb10,0.4714999999999998