formula,band_gap
SrCaMn2O6,0.0
SrCaMn2O5,0.0
SrCaMg6,0.0
SrCaMnNbO6,0.0
SrCaDyMnO6,0.0
SrCaCuBiO6,0.0
SrCa7Ti3Mn5O22,0.0
SrCa7Ti2Mn6O24,0.0
SrCa7Ti2Mn6O22,0.0
SrCa7Ti2Mn6O21,0.0
SrCa7Ti3Mn5O23,0.0
SrCa7Ti2Mn6O20,0.0
SrCa7Mn8O23,0.0
SrCa7Mn8O22,0.0
SrCa7Mn8O21,0.0
SrCa7Mn8O24,0.0
SrCa7TiMn7O20,0.0
SrCaCr2O6,0.0
SrCaCo2O5,0.0
SrCaCeFeO6,0.0
SrCaCeCoO6,0.0
SrCa7Ti3Mn5O24,0.0
SrCa7TiMn7O24,0.0
SrCa7TiMn7O23,0.0
SrCa7TiMn7O22,0.0
SrCa7TiMn7O21,0.0
SrCaSmMnO6,0.0
SrCaTbGeO6,0.0
SrCoO3,0.0
SrCoN2,0.0
SrCoCu3Se4,0.0
SrCo6O11,0.0
SrCl3,0.0
SrCeVO4,0.0
SrCeN2,0.0
SrCeMg6,0.0
SrCoBiRuO6,0.0
SrCr10O15,0.0
SrCr7N10,0.0
SrCu(TeO3)2,0.0
SrCu,0.0
SrCr2O4,0.0
SrCrO3,0.0
SrCrO2,0.0
SrCrN2,0.0
SrCrF6,0.0
SrCeMg14,0.0
SrCeI4,0.0
SrCd2Pd,0.0
SrCd2,0.0
SrCd11,0.0
SrCaZrNbO6,0.0
SrCd3,0.0
SrCaZrFeO6,0.0
SrCaZn2,0.0
SrCaTl2,0.0
SrCaTiMnO6,0.0
SrCaTi4O12,0.0
SrCeHg2,0.0
SrCeEuNbO6,0.0
SrCeAlO4,0.0
SrCdSn,0.0
SrCdPt,0.0
SrCdPb,0.0
SrCdHg2,0.0
SrCdGa,0.0
SrCe2(SF2)2,0.0
SrCa7Mn8O20,0.0
SrMg14V,0.0
SrMg14Zn,0.0
SrMg14Zr,0.0
SrMg5,0.0
SrMg4,0.0
SrMg30TiO32,0.0
SrMg30AlO32,0.0
SrMg14Ti,0.0
SrMg2Pd,0.0
SrMg14Sn,0.0
SrMg14Cr,0.0
SrMg14Cd,0.0
SrMg14Bi,0.0
SrMg14AlO16,0.0
SrMg14Al,0.0
SrMg(RuO3)2,0.0
SrMg14CuO16,0.0
SrMg14Si,0.0
SrMg14Sb,0.0
SrMg14Ni,0.0
SrMg14Nb,0.0
SrMg14Mn,0.0
SrMg14Fe,0.0
SrMg6Al,0.0
SrMnInWO6,0.0
SrMnPF,0.0
SrMnSb2,0.0
SrMnSbF,0.0
SrMoO3,0.0
SrN,0.0
SrN2,0.0
SrNb2CuClO7,0.0
SrNb2CuO6F,0.0
SrNd2Fe2O7,0.0
SrNd2(CuO3)2,0.0
SrNd(CoO3)2,0.0
SrNbVSnO6,0.0
SrNbO3,0.0
SrMnGe,0.0
SrNb8O14,0.0
SrNb5Se8,0.0
SrNb2NiClO7,0.0
SrMnBi2,0.0
SrMn7O12,0.0
SrMg6Zn,0.0
SrMg6Ti,0.0
SrMg6Ni,0.0
SrMg6Zr,0.0
SrMg6Ga,0.0
SrMg6Cd,0.0
SrMg6Bi,0.0
SrMg7,0.0
SrMn7N10,0.0
SrMn2BiO6,0.0
SrMgTl2,0.0
SrMgPb,0.0
SrMgInWO6,0.0
SrMgSn,0.0
SrMg,0.0
SrLa2(CuO3)2,0.0
SrLa2(FeO3)3,0.0
SrLa2Fe2O7,0.0
SrLa2Mn3O9,0.0
SrLa2Ti3O9,0.0
SrLa7Ti4(Cu2O11)2,0.0
SrLa7Cu4(SnO6)4,0.0
SrLa3Ti2(CoO6)2,0.0
SrLa3MnO8,0.0
SrLa3MnCuO8,0.0
SrLa3Mn4O12,0.0
SrLa3(CuO4)2,0.0
SrLa(CoO3)2,0.0
SrIrO3,0.0
SrIn3Hg,0.0
SrIn3Au,0.0
SrIn3,0.0
SrIn2Rh,0.0
SrIn2Pt,0.0
SrIn2(PO4)4,0.0
SrHo2CuO5,0.0
SrLaAlCuO5,0.0
SrIn4Ni,0.0
SrIr2,0.0
SrInPt,0.0
SrInPd,0.0
SrIn4Ir,0.0
SrInHg2,0.0
SrIn5Au3,0.0
SrIn5,0.0
SrIn4Pt,0.0
SrIn4Pd,0.0
SrInAu5,0.0
SrLaCoO4,0.0
SrLiEu(CoO3)2,0.0
SrLiAlSb2,0.0
SrLi4La15(CoO8)4,0.0
SrLi3MnN3,0.0
SrLiGe2,0.0
SrLi2In,0.0
SrLaVO4,0.0
SrLaVFeO6,0.0
SrLi2Pb,0.0
SrLiLa7Fe3O16,0.0
SrLiMg14,0.0
SrLiSi,0.0
SrLiNiF6,0.0
SrHg8,0.0
SrLaTlCuO5,0.0
SrLaTiMnO6,0.0
SrLaMg14,0.0
SrLaHg2,0.0
SrLaGaCuO5,0.0
SrLaFeRuO6,0.0
SrLaFeCoO6,0.0
SrLaCuRuO6,0.0
SrLaCoRuO6,0.0
SrLaMn2O6,0.0
SrLaPt2,0.0
SrLaNiO4,0.0
SrLaNd(CuO3)2,0.0
SrLaMnO4F,0.0
SrLaMnO4,0.0
SrLaMnO3,0.0
SrLaMnFeO6,0.0
SrNd2Mn3O9,0.0
SrCa7Mn7FeO24,0.0
SrCa7Mn7CrO24,0.0
Sr4LiTb2(RuO6)2,0.0
Sr4LiY2(RuO6)2,0.0
Sr4Mg3Al5,0.0
Sr4MgFe2(SO3)2,0.0
Sr4MgMn2(GaO5)2,0.0
Sr4MgMn2(SO3)2,0.0
Sr4MgMn2Ga2O11,0.0
Sr4MgMn4O10,0.0
Sr4MgRe2NiO12,0.0
Sr4MgTi3O10,0.0
Sr4MnN4,0.0
Sr4Mn2Nb4Bi4O23,0.0
Sr4Mn2Cu3(SeO)4,0.0
Sr4Mn2Cu3(SO)4,0.0
Sr4Mn2CoO9,0.0
Sr4Mn2Bi4O13,0.0
Sr4MgV3O10,0.0
Sr4Mn2Ga2O11,0.0
Sr4LiSm2Ta2O12,0.0
Sr4LaMn5O13,0.0
Sr4LaCrFe4O15,0.0
Sr4La4Mn7CuO24,0.0
Sr4La4Cr(NiO5)3,0.0
Sr4La2Mn3(IrO6)3,0.0
Sr4La2Mg(RuO6)2,0.0
Sr4La(CoO3)5,0.0
Sr4IrO6,0.0
Sr4Ir3O10,0.0
Sr4MnRuO8,0.0
Sr4LiMn2Cu3(SO)4,0.0
Sr4Li3InGe6,0.0
Sr4Li(RuO4)3,0.0
Sr4LaTi5O15,0.0
Sr4LaMn5O15,0.0
Sr4In2N,0.0
Sr4N3,0.0
Sr5(OsN3)2,0.0
Sr5Al9,0.0
Sr5Ca3Fe2(Co3O10)2,0.0
Sr5Ca3Fe7CoO24,0.0
Sr5Ca3FeCo7O20,0.0
Sr5Ca3FeCo7O24,0.0
Sr5Ca3Mn4(FeO5)4,0.0
Sr5CeNd3Cu4PbO18,0.0
Sr5Ca3TiMn7O20,0.0
Sr5Ca3Ti5Mn3O20,0.0
Sr5(IrN3)2,0.0
Sr5Ca3Ti3Mn5O24,0.0
Sr5Ca3MnFe7O20,0.0
Sr5Ca3Mn7FeO24,0.0
Sr5Ca3Mn7FeO20,0.0
Sr5Ca3Mn6(FeO12)2,0.0
Sr5(CrN3)2,0.0
Sr5(BiO4)3,0.0
Sr4SnN4,0.0
Sr4Sn9Au7,0.0
Sr4RuN4,0.0
Sr4Ru3O10,0.0
Sr4Ru2O9,0.0
Sr4RhO6,0.0
Sr4PtN4,0.0
Sr4PrMn5O15,0.0
Sr4NdMn5O15,0.0
Sr4RhN4,0.0
Sr4TlFe2O9,0.0
Sr4Zn3Si5,0.0
Sr4TlCu2BiO10,0.0
Sr4Y2Mg(RuO6)2,0.0
Sr4Y2GaCu5(PbO4)4,0.0
Sr4Y2Fe2Cu4O15,0.0
Sr4Y2(Fe2O5)3,0.0
Sr4V3O10,0.0
Sr4U3ZnO12,0.0
Sr4In17Au15,0.0
Sr4GaSn3,0.0
Sr3ScNiO6,0.0
Sr3Sm(CoO4)2,0.0
Sr3Sn13Ir4,0.0
Sr3Sn13Rh4,0.0
Sr3Sn3Au8,0.0
Sr3Sn4Bi,0.0
Sr3Sn5,0.0
Sr3SnO,0.0
Sr3Ta5O15,0.0
Sr3TaCoO7,0.0
Sr3Y(CoO4)2,0.0
Sr3WN3,0.0
Sr3W3N5,0.0
Sr3V5S11,0.0
Sr3V3N5,0.0
Sr3Ru3N5,0.0
Sr3V3(BiO7)2,0.0
Sr3Tl(FeO4)2,0.0
Sr3Ti3N5,0.0
Sr3Ti2Mn2BiO12,0.0
Sr3TaFeO7,0.0
Sr3RhN3,0.0
Sr3NdMn2O8,0.0
Sr3NdCuRuO8,0.0
Sr3Nd2Nb10O30,0.0
Sr3Nd(FeO4)2,0.0
Sr3Nd(CoO4)2,0.0
Sr3Nd,0.0
Sr3Nb5O15,0.0
Sr3Nb3N5,0.0
Sr3Zn,0.0
Sr3NiIrO6,0.0
Sr3NiPtO6,0.0
Sr3ReN3,0.0
Sr3NiN3,0.0
Sr3PrMn2O8,0.0
Sr3Pr3Mn2Cu2O13,0.0
Sr3Pm,0.0
Sr3Pb,0.0
Sr3OsN3,0.0
Sr3ZnCoO6,0.0
Sr3ZnIrO6,0.0
Sr3ZnRhO6,0.0
Sr4CeY3Cu4(RuO10)2,0.0
Sr4CeSm3Nb2(CuO5)4,0.0
Sr4CePr3Nb2(CuO5)4,0.0
Sr4CeMn5O15,0.0
Sr4CaYGa2(Cu2O7)2,0.0
Sr4CaYFeCu4PbO14,0.0
Sr4CaYCu6(PbO4)4,0.0
Sr4CaYCu4Bi2(PbO8)2,0.0
Sr4Cd11,0.0
Sr4CaY2(RuO6)2,0.0
Sr4Cr3O10,0.0
Sr4FeRuO8,0.0
Sr4CoN4,0.0
Sr4Fe4Bi5PbO18,0.0
Sr4Fe2CoNiO12,0.0
Sr4Cu3ClO6,0.0
Sr4Cu2Bi4O13,0.0
Sr5Fe4CoO10,0.0
Sr4CaSi3,0.0
Sr4Ca4Co7CuO24,0.0
Sr4Ca2TlCu4PbO14,0.0
Sr4Bi3,0.0
Sr4(RuO4)3,0.0
Sr4(PPd)5,0.0
Sr3Zr3N5,0.0
Sr4CaTb2(RuO6)2,0.0
Sr4Ca4Mn5(FeO8)3,0.0
Sr4Ca4Mn7FeO20,0.0
Sr4CaPr2Cu4HgO14,0.0
Sr4CaMn2Cu3(SO)4,0.0
Sr4CaHoCu6(PbO4)4,0.0
Sr4CaCr5O15,0.0
Sr4CaCo2(SO3)2,0.0
Sr4Ca4TiMn7O24,0.0
Sr4Ca4TiMn7O20,0.0
Sr4CaLaTl2(Cu2O7)2,0.0
SrCa7Mn7FeO20,0.0
Sr5Fe4MoO15,0.0
Sr5Fe5O14,0.0
SrAg2,0.0
SrAg3Pd2,0.0
SrAg5,0.0
SrAgBi,0.0
SrAl,0.0
SrAl2,0.0
SrAl2Au3,0.0
SrAl3Ag,0.0
SrAl4,0.0
SrAl9Co2,0.0
SrAu5,0.0
SrAu2,0.0
SrAu,0.0
SrAsPt,0.0
SrAsPd,0.0
SrAsAu,0.0
SrAs3,0.0
SrAlSi,0.0
SrAlO3,0.0
SrAlIn,0.0
SrAlGa,0.0
SrAl9Ni2,0.0
SrAcZn2,0.0
SrAcTl2,0.0
Sr8Rh5,0.0
Sr8Pr4Cu9(HgO8)3,0.0
Sr8Ni3N8,0.0
Sr8Nd2Fe5(MoO6)5,0.0
Sr8MnFe7O24,0.0
Sr8MnFe7O20,0.0
Sr8Mn6Cu4S4O15,0.0
Sr8Mn3N8,0.0
Sr8In4Cu3N5,0.0
Sr8Fe8O23,0.0
Sr8Mn6Cu4Se4O15,0.0
SrB6,0.0
Sr8Tl3Cr(CuO5)4,0.0
Sr9(MnN4)2,0.0
SrAcIn2,0.0
SrAcHg2,0.0
SrAcGa2,0.0
SrAcCd2,0.0
SrAcAu2,0.0
Sr8Y4Cu11CO28,0.0
Sr9Zn2(CuO7)2,0.0
Sr9Nd3Cu12(PbO4)8,0.0
Sr9Mg38,0.0
Sr9LaTi10O30,0.0
Sr9CaSi6,0.0
Sr9Zn3(CuO7)2,0.0
Sr8Fe7CoO24,0.0
SrB8O15,0.0
SrCa3Mn4O11,0.0
SrCa3Mn4O12,0.0
SrCa3TiMn3O10,0.0
SrCa5Mn4(GaO8)2,0.0
SrCa7FeCo7O20,0.0
SrCa7FeCo7O24,0.0
SrCa7Mn6(FeO10)2,0.0
SrCa7Mn6(FeO12)2,0.0
SrCa7Mn6Al2O20,0.0
SrCa7Mn6Al2O23,0.0
SrCa7Mn7CrO22,0.0
SrCa7Mn7CrO21,0.0
SrCa7Mn7CrO20,0.0
SrCa7Mn6Cr2O23,0.0
SrCa7Mn6Cr2O22,0.0
SrCa7Mn6Cr2O21,0.0
SrCa7Mn6Cr2O24,0.0
SrCa3Mn4O10,0.0
SrC6,0.0
SrBr3,0.0
SrBi3,0.0
SrBeGe,0.0
SrCa(Ni2Sn)4,0.0
SrCa2(FeAs)6,0.0
SrCa3Lu9O18,0.0
SrCa3IrO6,0.0
SrCa3(RuO4)2,0.0
SrCa3(RuO3)4,0.0
SrCa3(CuO3)2,0.0
SrCa(RuO3)2,0.0
SrCa3(CoO3)4,0.0
SrCa3,0.0
SrCa2In2Ge,0.0
SrCa2Cu2(BiO4)2,0.0
SrCa2(FeO2)3,0.0
Sr8Fe5Re5O28,0.0
Sr8Fe4Co4O23,0.0
Sr8Fe3N8,0.0
Sr6Ca2Co5Cu3O20,0.0
Sr6Ca2Co7CuO24,0.0
Sr6Ca2Fe3(CoO4)5,0.0
Sr6Ca2Fe3Co5O24,0.0
Sr6Ca2Fe5(CoO8)3,0.0
Sr6Ca2Fe5Co3O20,0.0
Sr6Ca2Fe7CoO24,0.0
Sr6Ca2Mn3(FeO4)5,0.0
Sr6Ca2Mn3Fe5O24,0.0
Sr6Ca2Mn5(FeO8)3,0.0
Sr6Ca2Mn5Fe3O20,0.0
Sr6Ca2MnFe7O20,0.0
Sr6Ca2MnFe7O24,0.0
Sr6Ca4Cu17O29,0.0
Sr6CaY2Ga3(Cu2O7)3,0.0
Sr6La14Mn17(CuO20)3,0.0
Sr6Ir2RuO12,0.0
Sr6In2NF,0.0
Sr6Ge5N2,0.0
Sr6FeC2N7,0.0
Sr6(RhO3)5,0.0
Sr6Fe5Ag3(Se2O5)2,0.0
Sr6Co4O13,0.0
Sr6Co4Bi2O15,0.0
Sr6Ce2Y4Fe3(CuO8)3,0.0
Sr5ZnCd4,0.0
Sr5Mg,0.0
Sr5Mn(Fe2O5)2,0.0
Sr5La5Mn9CuO30,0.0
Sr5La3Mn8(O5F)4,0.0
Sr5Ir3O11,0.0
Sr5In3,0.0
Sr5Ge3,0.0
Sr6La14Mn17(SnO20)3,0.0
Sr5Nb5O16,0.0
Sr5U5O19,0.0
Sr5Tl3,0.0
Sr5Ti5O13,0.0
Sr5Sn3,0.0
Sr5Si3,0.0
Sr5Mn5O13,0.0
Sr5Sb3,0.0
Sr5Pb4,0.0
Sr5Pb3F,0.0
Sr5Ni2BiO10,0.0
Sr5Nd5Cu(NiO5)4,0.0
Sr5Nb5O17,0.0
Sr5Sb2As,0.0
Sr6La14Ti3Mn17O60,0.0
Sr6La3Ti3Cu3O20,0.0
Sr6Li23,0.0
Sr7OsN6,0.0
Sr7MnN6,0.0
Sr7Mn4O15,0.0
Sr7Pt3,0.0
Sr7Ge6,0.0
Sr7Cu2HgBiSbO15,0.0
Sr7CrN6,0.0
Sr7CaTi8O20,0.0
Sr7CaTi7MnO20,0.0
Sr7CaTi5Mn3O24,0.0
Sr7Cu44As23,0.0
Sr7CaTi3Mn5O24,0.0
Sr7Re4O19,0.0
Sr7RhN6,0.0
Sr8Cu(WO6)3,0.0
Sr8Cr3N8,0.0
Sr8Co6Cl4O15,0.0
Sr7ReN6,0.0
Sr8Co3N8,0.0
Sr8Al7,0.0
Sr8(MnN3)3,0.0
Sr7SmFe4(MoO6)4,0.0
Sr7CaMnFe7O24,0.0
Sr6Sn2NO,0.0
Sr6YGa3(Cu2O7)3,0.0
Sr6Sn2NF,0.0
Sr6Nb7O21,0.0
Sr6Nb2O11,0.0
Sr6Mn3FeO14,0.0
Sr6Mg23,0.0
Sr6Sn12Pt11,0.0
Sr7CaMnFe7O20,0.0
Sr6YTl3(Cu2O7)3,0.0
Sr7Au3,0.0
Sr7CaMn3Fe5O24,0.0
Sr7CaMn2(FeO4)6,0.0
Sr7CaMn2(Fe3O10)2,0.0
Sr7CaFe7CoO24,0.0
Sr7Ag3,0.0
Sr7CaFe6(CoO12)2,0.0
Sr7CaFe5Co3O20,0.0
Sr7CaFe5(CoO8)3,0.0
Sr7CaFe4(CoO6)4,0.0
Sr7CaFe4(CoO5)4,0.0
Sr7Ca(IrO6)2,0.0
SrNd3,0.0
SrNd3AlCuO8,0.0
TaPd3,0.0
TaPt2,0.0
TaPt3,0.0
TaRe,0.0
TaReSi,0.0
TaRh2,0.0
TaRhO4,0.0
TaRu,0.0
TaRu3,0.0
TaSe2,0.0
TaSb2,0.0
TaSN,0.0
TaS3,0.0
TaS2,0.0
TaPd2,0.0
TaRu3C,0.0
TaPbSe2,0.0
TaPbS2,0.0
TaNiAs,0.0
TaNi3,0.0
TaNi2,0.0
TaNi11(BO5)4,0.0
TaNi,0.0
TaNbW,0.0
TaNbV,0.0
TaNiP,0.0
TaNiP2O9,0.0
TaPRu,0.0
TaPRh,0.0
TaP,0.0
TaNiP2,0.0
TaOs3,0.0
TaO2,0.0
TaNiTe2,0.0
TaTi3,0.0
TaTiBe4,0.0
TaTiMn2,0.0
TaTiNi6,0.0
TaTiO4,0.0
TaVCo,0.0
TaVC2,0.0
TaVB4,0.0
TaV2,0.0
TaV,0.0
TaTiZn2O6,0.0
TaTiTe4,0.0
TaTiTc2,0.0
TaTiRu2,0.0
TaTiRe2,0.0
TaTiWC3,0.0
TaTe5Pt,0.0
TaSiAs,0.0
TaSi4Mo,0.0
TaSi2,0.0
TaSeS,0.0
TaSiIr,0.0
TaSe3,0.0
TaSiNi,0.0
TaSiRh,0.0
TaTe4Ir,0.0
TaTe4,0.0
TaTe2,0.0
TaTc,0.0
TaSnRu2,0.0
TaSn2,0.0
TaSiRu2,0.0
TaSiRu,0.0
TaTc2Ge,0.0
TaNbTc2,0.0
TaNbRe2,0.0
TaNbMo,0.0
TaCo,0.0
TaCo2,0.0
TaCo3,0.0
TaCo6Mo,0.0
TaCoAs,0.0
TaCoB,0.0
TaCoB2,0.0
TaCoGe,0.0
TaCoNi2,0.0
TaCoP,0.0
TaCr3(AgS4)2,0.0
TaCr2,0.0
TaCoSi,0.0
TaCl3,0.0
TaC,0.0
TaBi(WO5)2,0.0
TaAlOs2,0.0
TaAlNi6,0.0
TaAlNi2,0.0
TaAlFe4,0.0
TaAlFe,0.0
TaAlCu,0.0
TaAlCo2,0.0
TaAl4Ni15,0.0
TaAl3,0.0
TaAl2Ni9,0.0
TaAgWO7,0.0
TaAs,0.0
TaBeRu2,0.0
TaBeB,0.0
TaBe4Mo,0.0
TaBe3,0.0
TaBe2,0.0
TaBe12,0.0
TaAlZn,0.0
TaB4W3,0.0
TaB2Mo,0.0
TaB2,0.0
TaB,0.0
TaMnRu2,0.0
TaMnGe,0.0
TaMn2Ge,0.0
TaMn2Al,0.0
TaMnSi,0.0
TaMn2,0.0
TaIr3,0.0
TaIr,0.0
TaMo2(WSe5)2,0.0
TaNbCu3O8,0.0
TaNbCN,0.0
TaNbC2,0.0
TaNbAl6,0.0
TaN,0.0
TaMoC2,0.0
TaMo2C3,0.0
TaVCu,0.0
TaInO3,0.0
TaFeB,0.0
TaFeAs,0.0
TaFe4W,0.0
TaFe2Ge,0.0
TaFe2,0.0
TaFe,0.0
TaFeGe,0.0
TaCrP,0.0
TaCrCo,0.0
TaCrB4,0.0
TaCuRh2,0.0
TaHg2F6,0.0
TaGeRu2,0.0
TaGeRh,0.0
TaGe2,0.0
TaGaRu2,0.0
TaGaNi2,0.0
TaGa3,0.0
TaFeTe3,0.0
TaFeSi,0.0
TaFeRu2,0.0
TaGaNi6,0.0
TaVH4,0.0
TaVO4,0.0
Tb2C3,0.0
Tb2CBr,0.0
Tb2CdNi2,0.0
Tb2Co12P7,0.0
Tb2Co14B,0.0
Tb2Co3Ni,0.0
Tb2Co3Si5,0.0
Tb2CuIr,0.0
Tb2CuGe6,0.0
Tb2CuAg,0.0
Tb2CrGe4,0.0
Tb2Cr2C3,0.0
Tb2BiO2,0.0
Tb2CoGe6,0.0
Tb2Co7,0.0
Tb2CoPtO6,0.0
Tb2B6Ru,0.0
Tb2B6Os,0.0
Tb2Al17,0.0
Tb2Al,0.0
Tb2AgPd,0.0
Tb2AgIr,0.0
Tb24Fe3CoBi8,0.0
Tb2Al3Co,0.0
Tb20In40Rh19,0.0
Tb2(NiB2)3,0.0
Tb2(Ni5B3)3,0.0
Tb2(Ni2B)5,0.0
Tb2(GePt3)3,0.0
Tb2(Ga3Ru)3,0.0
Tb2Al3Fe,0.0
Tb2Al3Pt,0.0
Tb2B4C,0.0
Tb2AlGe6,0.0
Tb2Al3Ge4,0.0
Tb2AlFe3,0.0
Tb2AlCo2,0.0
Tb2Al6Si4Pt,0.0
Tb2Al6Si4Au,0.0
Tb2Al4NiGe2,0.0
Tb2Al3Si2,0.0
Tb2AlCu,0.0
Tb2(Ga3Rh)3,0.0
Tb2In8Co,0.0
Tb2InCu2,0.0
Tb2InGe2,0.0
Tb2InHg,0.0
Tb2InNi2,0.0
Tb2InPd2,0.0
Tb2IrPd,0.0
Tb2IrRh,0.0
Tb2IrRu,0.0
Tb2Mg,0.0
Tb2Mg3Ni2,0.0
Tb2Mg5Ag,0.0
Tb2MgCu(GeO3)4,0.0
Tb2Mo2C3,0.0
Tb2MnGa6,0.0
Tb2Mn3Cu9P7,0.0
Tb2Mn3Al,0.0
Tb2Mn12P7,0.0
Tb2In3Cu,0.0
Tb2MgTi2S2O5,0.0
Tb2MgPd2,0.0
Tb2MgNi2,0.0
Tb2MgCu2,0.0
Tb2In16Pt7,0.0
Tb2In,0.0
Tb2FeSi2,0.0
Tb2FeCo3,0.0
Tb2FeC4,0.0
Tb2Fe2Si2C,0.0
Tb2Fe17N3,0.0
Tb2FeSi4,0.0
Tb2Fe17N2,0.0
Tb2Fe17C2,0.0
Tb2Fe17C,0.0
Tb2Fe17,0.0
Tb2Fe17H3,0.0
Tb2Fe14B,0.0
Tb2Ga3Cu,0.0
Tb2HfAl9,0.0
Tb2Hf3Si4,0.0
Tb2Ge6Pt,0.0
Tb2Ge6Au,0.0
Tb2Ge5Rh3,0.0
Tb2Ge5Ir3,0.0
Tb2GaNi2,0.0
Tb2GaCo2,0.0
Tb2Ga8Fe,0.0
Tb2Ga3Fe,0.0
Tb2(Ga3Co)3,0.0
Tb2(B2Rh3)3,0.0
Tb(BIr)4,0.0
Tb(BRh)4,0.0
Tb(Cd10Ni)2,0.0
Tb(Co2B)6,0.0
Tb(CoB)2,0.0
Tb(CoB)4,0.0
Tb(CoGe)2,0.0
Tb(CrFe5)2,0.0
Tb(CrSi)2,0.0
Tb(Fe2Si)2,0.0
Tb(GeIr)2,0.0
Tb(GaCo2)4,0.0
Tb(GaCo)6,0.0
Tb(FeSn)6,0.0
Tb(BIr)2,0.0
Tb(FeSi)2,0.0
Tb(FeGe)6,0.0
Tb(FeGe)2,0.0
Tb(FeB)2,0.0
Tb(Fe5Si)2,0.0
Tb(Fe5Re)2,0.0
Tb(Fe5Mo)2,0.0
Tb(FeP3)4,0.0
Tb(BC)2,0.0
Tb(AlSi)2,0.0
TaZnRh2,0.0
TaZnOs2,0.0
TaZnCo2,0.0
TaZn3,0.0
TaZn2SnO6,0.0
TaZn2NiO6,0.0
TaZnRu2,0.0
TaZn2CuO6,0.0
TaZn2,0.0
TaWSe4,0.0
TaW3,0.0
TaW,0.0
TaVP,0.0
Tb(GePt)2,0.0
Tb,0.0
Tb(AlFe)6,0.0
Tb(AlAu)2,0.0
Tb(Al2Fe)4,0.0
Tb(Al2Cu)4,0.0
Tb(Al2Cr)4,0.0
Tb(GeRh)2,0.0
Tb(GeRu)2,0.0
Tb(InCu)6,0.0
Tb11S16,0.0
Tb11In9Pd4,0.0
Tb11In9Ni4,0.0
Tb11Ge10,0.0
Tb11Sn10,0.0
Tb11CuSe16,0.0
Tb10Mn13C18,0.0
Tb10B7C10,0.0
Tb10B2Br15,0.0
Tb10(SiSb)3,0.0
Tb(VFe5)2,0.0
Tb11Cd45,0.0
Tb12(MnC3)5,0.0
Tb2(Al3Pd)3,0.0
Tb2(Al3Ir)3,0.0
Tb16B4Br23,0.0
Tb14Au51,0.0
Tb14(P8Ir11)3,0.0
Tb12Ni6Pb,0.0
Tb12FeCoBi4,0.0
Tb12Co5Bi,0.0
Tb14Ag51,0.0
Tb(Ni2B)6,0.0
Tb(Ni2As)2,0.0
Tb(Mo3Se4)2,0.0
Tb(Ni2P)2,0.0
Tb(MnGe)6,0.0
Tb(MnAl)6,0.0
Tb(MnSi)2,0.0
Tb(SiRu)2,0.0
Tb(SiPt)2,0.0
Tb(SiOs)2,0.0
Tb(SiNi5)2,0.0
Tb(NiGe)2,0.0
Tb(SiIr)2,0.0
Tb(SiAu)2,0.0
Tb(SiAg)2,0.0
Tb(PRu)2,0.0
Tb(P3Ru)4,0.0
Tb(NiSb)2,0.0
Ta9(NiS3)2,0.0
Ta9(CoS3)2,0.0
SrYCoO4,0.0
SrYMg6,0.0
SrZn,0.0
SrZn11,0.0
SrZn13,0.0
SrZn2,0.0
SrZnSbF,0.0
SrZnSb2,0.0
SrZnRu5O11,0.0
SrVO3,0.0
SrZnPb,0.0
SrZnNi(PO4)2,0.0
SrZnIn3,0.0
SrZnBi2,0.0
SrZn5,0.0
SrZnO3,0.0
SrV6O11,0.0
SrTiCu4P4O17,0.0
SrTi4(CuO4)3,0.0
SrTcO3,0.0
SrTiMnBiO6,0.0
SrTbO3,0.0
SrTbEuWO6,0.0
SrTaO3,0.0
SrSnPt,0.0
SrZnSn,0.0
SrTiNbSnO6,0.0
SrV13O18,0.0
SrU2O6,0.0
SrTiS3,0.0
SrTlHg2,0.0
SrTl3,0.0
SrTl2,0.0
SrTl,0.0
SrTl3O5,0.0
SrSnP,0.0
Ta,0.0
Ta24Cu13O72,0.0
Ta24Ti5Se48,0.0
Ta27S50,0.0
Ta2AgS4,0.0
Ta2Al3V4C3,0.0
Ta2As,0.0
Ta2Au,0.0
Ta2B,0.0
Ta2Be,0.0
Ta2Be17,0.0
Ta2Bi2O9,0.0
Ta2Br5,0.0
Ta2CrOs,0.0
Ta2CrO6,0.0
Ta2CrFe,0.0
Ta2CrB2,0.0
Ta2Cr3Cu,0.0
Ta2Co3Si,0.0
Ta2Co,0.0
Ta2Cl5,0.0
Ta2CN,0.0
Ta2Co3Ge,0.0
Ta21Te13,0.0
Ta20Te5S3,0.0
Ta10Si2MoSe8,0.0
Ta10SeS3,0.0
Ta(WO4)2,0.0
Ta(SnS)2,0.0
Ta(Si5W2)2,0.0
Ta11(Co52B15)2,0.0
Ta(Mo2S5)2,0.0
Ta(Cu3O4)2,0.0
Ta(NiTe)2,0.0
Ta11(CoSe4)2,0.0
Ta11(NiSe4)2,0.0
Ta20Pd9S50,0.0
Ta2(PdRu)3,0.0
Ta2(Ni7B2)3,0.0
Ta11(FeSe4)2,0.0
Ta13Co40Si31,0.0
Ta13Al23,0.0
Ta11Al4,0.0
Ta16(Cu3O16)3,0.0
SrSnHg,0.0
SrSnAu,0.0
SrSn4,0.0
SrNiO3,0.0
SrNiRu5O11,0.0
SrNiSn3,0.0
SrP2(HO4)2,0.0
SrPAu,0.0
SrPIr,0.0
SrPPt,0.0
SrPb,0.0
SrPr3,0.0
SrPr2Mn3O9,0.0
SrPr(FeO3)2,0.0
SrPr(CoO3)2,0.0
SrPmPt2,0.0
SrPm3,0.0
SrPdO3,0.0
SrPd2,0.0
SrPd,0.0
SrPbF6,0.0
SrNdMnSnO6,0.0
SrNdMnO4,0.0
SrNdMnCoO6,0.0
SrNdMn2O6,0.0
SrNdMn2O5,0.0
SrNdMgWO6,0.0
SrNdHfTiO6,0.0
SrNdHf4O12,0.0
SrNdHf2O6,0.0
SrNdGaCuO5,0.0
SrNdEuSbO6,0.0
SrNdHfMnO6,0.0
SrNdV4O12,0.0
SrNiO2,0.0
SrNiN,0.0
SrNiGe2,0.0
SrNiGe,0.0
SrNi9P5,0.0
SrNdTi4O12,0.0
SrNi5P3,0.0
SrNi3Ge2,0.0
SrNi2Ge,0.0
SrNdZrTiO6,0.0
SrNdVO4,0.0
SrPrCoRuO6,0.0
SrPrDyCoO6,0.0
SrSiPt,0.0
SrSiPd,0.0
SrSi3Ni,0.0
SrScO3,0.0
SrSmB12,0.0
SrSn3Sb4,0.0
SrSn3Pd,0.0
SrSn3,0.0
SrSn,0.0
SrSm3Mn4O12,0.0
SrSmZrTiO6,0.0
SrSmTiNbO6,0.0
SrSmHfTiO6,0.0
Ta2CrRe,0.0
SrSbO3,0.0
SrRuO3,0.0
SrPt2,0.0
SrPrZrMnO6,0.0
SrPrZnRuO6,0.0
SrPrZnBiO6,0.0
SrPrVSnO6,0.0
SrPrO3,0.0
SrPt3O4,0.0
SrPrMnO4,0.0
SrPrGaCuO5,0.0
SrPrFeRuO6,0.0
SrPrFeCoO6,0.0
SrPrDyFeO6,0.0
SrPrMn2O6,0.0
SrSb2,0.0
SrPt5,0.0
SrRuN2,0.0
SrRhO3,0.0
SrRh2,0.0
SrReO3,0.0
SrRe7N10,0.0
Ta2CrRu,0.0
Ta4Co2PdSe12,0.0
Ta4Co4Si7,0.0
Ta4CoP,0.0
Ta4CoTe4,0.0
Ta4Cr7Si8,0.0
Ta4CrTe4,0.0
Ta4Fe2N,0.0
Ta4Fe4Si7,0.0
Ta4FeP,0.0
Ta4FeS8,0.0
Ta4FeTe4,0.0
Ta4GaSe8,0.0
Ta4Te16Pd3,0.0
Ta4SeS,0.0
Ta4NiP,0.0
Ta4Co2C,0.0
Ta4Ni2C,0.0
Ta4N3,0.0
Ta4MoSe10,0.0
Ta4MoS8,0.0
Ta4MoS10,0.0
Ta4N5,0.0
Ta4C3,0.0
Ta3Si,0.0
Ta3Sb,0.0
Ta3S2,0.0
Ta3Ru2,0.0
Ta3Ru,0.0
Ta3Re,0.0
Ta3Pd,0.0
Ta3PbS6,0.0
Ta3P,0.0
Ta4Te16PtI8,0.0
Ta3Sn,0.0
Ta3Te14Pd3,0.0
Ta4AlN3,0.0
Ta4AgS8,0.0
Ta4(CuNi3)3,0.0
Ta3V7Si6,0.0
Ta3TiB4,0.0
Ta3WS8,0.0
Ta5(NiP)4,0.0
Ta5Al3,0.0
Ta6Ti(CS2)3,0.0
Ta6Te3S,0.0
Ta6Si7Ni16,0.0
Ta6S,0.0
Ta6V3Co3C2,0.0
Ta6O,0.0
Ta6Nb3Te2S3,0.0
Ta6Mn(CS2)3,0.0
Ta6Fe7,0.0
Ta6Cr3Ni3C2,0.0
Ta6Cr3Fe3C2,0.0
Ta6V3Fe3C2,0.0
Ta6Zn7,0.0
Ta8V(CS2)4,0.0
Ta8NiSe8,0.0
Ta8Ni(CS2)4,0.0
Ta8Cr3O24,0.0
Ta6V3Ni3C2,0.0
Ta8CoSe8,0.0
Ta7S12,0.0
Ta7Fe6,0.0
Ta7Co6,0.0
Ta7(P2O7)8,0.0
Ta7(B4Ru3)2,0.0
Ta6Cr3Cu3C2,0.0
Ta6Cr(CS2)3,0.0
Ta5Ge3,0.0
Ta5Ga3B,0.0
Ta5Ga3,0.0
Ta5Ge3B,0.0
Ta5Ga2Sn,0.0
Ta5AuS,0.0
Ta5As4,0.0
Ta5Al3C,0.0
Ta6Cr3Co3C2,0.0
Ta6Co16Si7,0.0
Ta6Co16Ge7,0.0
Ta6Co(CS2)3,0.0
Ta6Be15Ni8,0.0
Ta6Be15Cu8,0.0
Ta6Al8O27F,0.0
Ta5N6,0.0
Ta5Zn7O18,0.0
Ta5Si3,0.0
Ta5Sb4,0.0
Ta5S8,0.0
Ta5Pb11O26,0.0
Ta5Si3N,0.0
Ta3Os2,0.0
Ta2NiS4,0.0
Ta2NiSe7,0.0
Ta2O5,0.0
Ta2OsW,0.0
Ta2P,0.0
Ta2PdSe6,0.0
Ta2PtSe7,0.0
Ta2Re2SnSe8,0.0
Ta2ReOs,0.0
Ta2ReRu,0.0
Ta2ReTc,0.0
Ta2ReW,0.0
Ta2Ti2Co2C,0.0
Ta2Te5Pd3,0.0
Ta2Te3,0.0
Ta2TcW,0.0
Ta2TcOs,0.0
Ta2NiO6,0.0
Ta2Se8I,0.0
Ta2Se3,0.0
Ta2Se,0.0
Ta2S,0.0
Ta2RuW,0.0
Ta2Ni,0.0
Ta2In(ReSe4)2,0.0
Ta2GaNi3,0.0
Ta2InS4,0.0
Ta2FeS4,0.0
Ta2FeOs,0.0
Ta2FeMo,0.0
Ta2GaC,0.0
Ta2Ti2NbC5,0.0
Ta2Mn4O9,0.0
Ta2NbRh,0.0
Ta2NbRe,0.0
Ta2NbOs,0.0
Ta2Nb3O12,0.0
Ta2N3,0.0
Ta2MnOs,0.0
Ta2N,0.0
Ta2MoOs,0.0
Ta2MoIr,0.0
Ta2MnV3,0.0
Ta2Ti2Ni2C,0.0
Ta2TiO6,0.0
Ta3Cr5N4,0.0
Ta3Cr3N,0.0
Ta3Co8Si,0.0
Ta3Co5B2,0.0
Ta3Co3C,0.0
Ta3Co2Mo,0.0
Ta3Be2,0.0
Ta3B4W3,0.0
Ta3B4,0.0
Ta3B2,0.0
Ta3Au,0.0
Ta3C2,0.0
Ta3Cu,0.0
Ta3MoS8,0.0
Ta3CrSe6,0.0
Ta3Mn8Si,0.0
Ta3Ir,0.0
Ta3Ge,0.0
Ta3FeS6,0.0
Ta3AlCr8,0.0
Ta2VRu,0.0
Ta2VRe,0.0
Ta2VOs,0.0
Ta2VO6,0.0
Ta2VIr,0.0
Ta2VC2,0.0
Ta2V4Si5,0.0
Ta2TlO6,0.0
Ta2TiZn2O8,0.0
Ta2TiW,0.0
Ta2TiRe,0.0
Ta2V3Si,0.0
Ta3AlFe8,0.0
Ta3(CrSi)8,0.0
Ta3AlC2,0.0
Ta3AlB8,0.0
Ta3Al4O14,0.0
Ta3Al2CoC,0.0
Ta3Al2C,0.0
Ta36B4C35,0.0
Ta3(InS3)2,0.0
Ta3(CuS3)2,0.0
Ta32Cu17O96,0.0
Sr3MnN3,0.0
Sr3MnFeO7,0.0
Sm2B5,0.0
Sm2Bi,0.0
Sm2BiO2,0.0
Sm2C,0.0
Sm2C3,0.0
Sm2CdAu2,0.0
Sm2CdGe2,0.0
Sm2CdIn,0.0
Sm2CdPd2,0.0
Sm2CdRh2,0.0
Sm2Co12P7,0.0
Sm2Co16Ag,0.0
Sm2Cr2C3,0.0
Sm2CoRuO6,0.0
Sm2CoGe2,0.0
Sm2Co7B3,0.0
Sm2Au,0.0
Sm2Co18Si4C3,0.0
Sm2Co17N3,0.0
Sm2Co17N2,0.0
Sm2Co17H3,0.0
Sm2Co3Ge5,0.0
Sm2AsSe,0.0
Sm26Ga6Co11,0.0
Sm23Mg4Rh7,0.0
Sm23Mg4Pt7,0.0
Sm23Cd4Rh7,0.0
Sm23Cd4Ir7,0.0
Sm2Ag2O5,0.0
Sm2(Zn2Ge)3,0.0
Sm2(InSn)3,0.0
Sm2(InCo3)3,0.0
Sm2(Ga3Ru)3,0.0
Sm2(ReB2)3,0.0
Sm2Cr2Fe15,0.0
Sm2AgGe6,0.0
Sm2AgIr,0.0
Sm2AlZn,0.0
Sm2AlNi2,0.0
Sm2AlGe6,0.0
Sm2AlGe3,0.0
Sm2AlCd,0.0
Sm2AlAg3,0.0
Sm2AgHg,0.0
Sm2Al4Fe13,0.0
Sm2Al2Fe15C,0.0
Sm2Al2Fe15,0.0
Sm2Al,0.0
Sm2AgSn,0.0
Sm2AgRu,0.0
Sm2Al3Ge4,0.0
Sm2(Ga3Rh)3,0.0
Sm2CrFe16,0.0
Sm2Ga2Fe12Co3C,0.0
Sm2Ga2Fe15,0.0
Sm2Ga2Fe15C,0.0
Sm2Ga3(Fe7C)2,0.0
Sm2Ga3Co,0.0
Sm2Ga5Cu3,0.0
Sm2Ga5Fe12,0.0
Sm2Ga9NiGe2,0.0
Sm2GaCo2,0.0
Sm2GaNi2,0.0
Sm2Ge2Rh,0.0
Sm2IO2,0.0
Sm2HgPb,0.0
Sm2GeRu3,0.0
Sm2GeRh3,0.0
Sm2Ge6Pd,0.0
Sm2Ge6Au,0.0
Sm2Ge5Pt3,0.0
Sm2Ge5Pd3,0.0
Sm2Ge5Ir3,0.0
Sm2Ge3Pt,0.0
Sm2Ge2Ru,0.0
Sm2Ge5Ru3,0.0
Sm2Ga2(Fe5C)3,0.0
Sm2Fe15Co2,0.0
Sm2Fe14B,0.0
Sm2Fe12P7,0.0
Sm2Fe15Si2C,0.0
Sm2CuO4,0.0
Sm2CuIr,0.0
Sm2CuAs3O,0.0
Sm2Cu4Sn5,0.0
Sm2CuRu,0.0
Sm2Fe17,0.0
Sm2Fe17C2,0.0
Sm2FeGe4,0.0
Sm2Fe5Co12C,0.0
Sm2Fe4Co13,0.0
Sm2Fe3Si5,0.0
Sm2Fe2Si2C,0.0
Sm2Fe17B3,0.0
Sm2Fe2Se2O3,0.0
Sm2Fe17N3,0.0
Sm2Fe17N,0.0
Sm2Fe17H3,0.0
Sm2Fe17CN,0.0
Sm2Fe20Si2C,0.0
Sm2(Ga3Ir)3,0.0
Sm2(Ga3Co)3,0.0
Sm2(CuAs)3,0.0
Sm(Cd10Ni)2,0.0
Sm(Cd10Pd)2,0.0
Sm(CoB)2,0.0
Sm(CoGe)2,0.0
Sm(CoSi)2,0.0
Sm(CrFe5)2,0.0
Sm(CrSi)2,0.0
Sm(CuGe)2,0.0
Sm(CuSi)2,0.0
Sm(CuSn)2,0.0
Sm(DyS2)2,0.0
Sm(GaSe2)2,0.0
Sm(GaPd)2,0.0
Sm(Ga4Fe)2,0.0
Sm(BiTe2)2,0.0
Sm(FeSi)2,0.0
Sm(FeO2)2,0.0
Sm(FeGe)2,0.0
Sm(Fe5Si)2,0.0
Sm(Fe5Re)2,0.0
Sm(Fe5Mo)2,0.0
Sm(FeP3)4,0.0
Sm(BRu)2,0.0
Sm(Al2Cr)4,0.0
Sm(Al10Cr)2,0.0
Sm(AgGe)2,0.0
Sm,0.0
SiTe2,0.0
SiTc3,0.0
SiTc2W,0.0
SiTc,0.0
SiSnPd5,0.0
Sm(GdS2)2,0.0
Sm(Al4Co)2,0.0
Sm(BRh)4,0.0
Sm(BOs)4,0.0
Sm(BOs)2,0.0
Sm(BIr)2,0.0
Sm(BH4)2,0.0
Sm(Al3Fe)3,0.0
Sm(BC)2,0.0
Sm(AlZn)2,0.0
Sm(AlSi)2,0.0
Sm(AlGe)2,0.0
Sm(Al5Ru)2,0.0
Sm(Ge2Rh3)2,0.0
Sm(Ge3Pt)4,0.0
Sm(GeIr)2,0.0
Sm10Sb3Se7,0.0
Sm10As8Au3O10,0.0
Sm(ZnGa)2,0.0
Sm(VFe5)2,0.0
Sm11(CoB)40,0.0
Sm(SiRu)2,0.0
Sm(SiRh)2,0.0
Sm(SiPt)2,0.0
Sm(SiOs)2,0.0
Sm(Sn2Rh)2,0.0
Sm(SiNi)2,0.0
Sm11(Fe2C3)6,0.0
Sm11Cd45,0.0
Sm2(CoCu)5,0.0
Sm2(Al3Ir)3,0.0
Sm2(Al3Co)3,0.0
Sm11Br24,0.0
Sm13Cd58,0.0
Sm12(OsC3)5,0.0
Sm11In9Ni4,0.0
Sm11Hg45,0.0
Sm12InCo6,0.0
Sm2In,0.0
Sm(SiIr)2,0.0
Sm(MnGe)2,0.0
Sm(MnCo2)4,0.0
Sm(MnSi)2,0.0
Sm(Mg4Al3)4,0.0
Sm(InCu)6,0.0
Sm(GeRu)2,0.0
Sm(Mo3S4)2,0.0
Sm(SiAu)2,0.0
Sm(SbTe2)2,0.0
Sm(Sb3Os)4,0.0
Sm(Re2Si)2,0.0
Sm(PRu)2,0.0
Sm(PPd)2,0.0
Sm(NiSb)2,0.0
Sm(NiP)2,0.0
Sm(NiB)2,0.0
Sm(NiAs)2,0.0
Sm(Ni2P)2,0.0
Sm(Mo3Se4)2,0.0
Sm(PIr)2,0.0
Sm2In3Cu,0.0
Sm2In8Co,0.0
Sm3HoS4,0.0
Sm3In5,0.0
Sm3Ir,0.0
Sm3Lu,0.0
Sm3Mg,0.0
Sm3Mg21Sb16,0.0
Sm3Mg2MnS8,0.0
Sm3Mg2MoS8,0.0
Sm3Mg2TiS8,0.0
Sm3Mg2VS8,0.0
Sm3RuO7,0.0
Sm3Ru,0.0
Sm3Rh2,0.0
Sm3Rh,0.0
Sm3Ho,0.0
Sm3OsO7,0.0
Sm3Ni,0.0
Sm3MnGaS7,0.0
Sm3MgTi4O14,0.0
Sm3Hg,0.0
Sm3Fe5O12,0.0
Sm3Eu3S8,0.0
Sm3Ga2Sn3,0.0
Sm3Er,0.0
Sm3Dy,0.0
Sm3CrS6,0.0
Sm3GaC,0.0
Sm3Hf,0.0
Sm3GeO8,0.0
Sm3Ge13Pt4,0.0
Sm3GaCoSe7,0.0
Sm3S4,0.0
Sm3Sb4S9,0.0
Sn2Sb4Pt3,0.0
Sn3(OF)2,0.0
Sn3Au,0.0
Sn3Bi,0.0
Sn3BiTe4,0.0
Sn3Ge,0.0
Sn3P3O13,0.0
Sn3PO6,0.0
Sn3Pb,0.0
Sn4B3Ir7,0.0
Sn4Au,0.0
Sn4As3,0.0
Sn3Te2Se,0.0
Sn3Ru2,0.0
Sn3Pt2,0.0
Sn4(PO4)3,0.0
Sn2Rh3S2,0.0