formula,band_gap
Mg6AlBi,0.0
Mg64Si32Bi,0.0
Mg64Si31Bi,0.0
Mg63Si32Bi,0.0
Mg6AlCuO8,0.0
Mg6BiSb,0.0
Mg6AlZn,0.0
Mg6AlSi,0.0
Mg6AlNi,0.0
Mg6VCd,0.0
Mg6VCoO8,0.0
MgAl2,0.0
MgAl2(PO4)3,0.0
MgAl2Cu,0.0
MgAl3,0.0
MgAl8Fe3(PO5)8,0.0
MgAlAg,0.0
MgAlAg2,0.0
MgAlB4,0.0
MgAlCu,0.0
MgAlIr2,0.0
MgAlNi2,0.0
MgAlPd2,0.0
MgAu,0.0
MgAs,0.0
MgAlWS4,0.0
MgAlVS4,0.0
MgAlSi,0.0
MgAlRh2,0.0
MgAl(Bi3O5)4,0.0
MgAg3(AsO4)2,0.0
MgAg2,0.0
MgAg5,0.0
MgAl,0.0
MgAg4(RuO3)4,0.0
MgAgF5,0.0
MgAgAu2,0.0
MgAgAs,0.0
MgBi5,0.0
MgBiO3,0.0
MgCd,0.0
MgBi,0.0
MgBe13,0.0
MgBIr,0.0
MgB4Os3,0.0
MgB2,0.0
MgAuO2,0.0
MgBe4Cu,0.0
MgBi2O5,0.0
MgBi2,0.0
MgBi12AsO20,0.0
MgAg14(PbO3)6,0.0
Mg6ZnSn,0.0
Mg6ZrAl,0.0
Mg6ZrCr,0.0
Mg6ZrGa,0.0
Mg6ZrNi,0.0
Mg6ZrSb,0.0
Mg7Cr,0.0
Mg7Cd,0.0
Mg7Bi,0.0
Mg7Al,0.0
Mg7(SiO4)4,0.0
Mg6ZrZn,0.0
Mg6ZrV,0.0
Mg6ZrSn,0.0
Mg6ZnSb,0.0
Mg6ZnBi,0.0
Mg6VZn,0.0
Mg6VH16,0.0
Mg6VGa,0.0
Mg6VCrO8,0.0
Mg6VSb,0.0
Mg7Cu,0.0
Mg6ZnCo,0.0
Mg6ZnCr,0.0
Mg6ZnNi,0.0
Mg6ZnCuO8,0.0
Mg6ZnCu,0.0
Mg7Cu17O24,0.0
Mg7Cu2O9,0.0
Mg9Si5,0.0
Mg9Si10Pb8(CO16)3,0.0
Mg9CuO10,0.0
Mg9(MnN4)2,0.0
Mg8P8Ir23,0.0
MgAg,0.0
Mg9Sn5,0.0
Mg8Fe3N8,0.0
Mg7Si,0.0
Mg7Sc,0.0
Mg7NbH16,0.0
Mg7Nb,0.0
Mg7Ir3,0.0
Mg7GaAg12,0.0
Mg7Ga,0.0
Mg7Ni,0.0
Mg8Mn3N8,0.0
Mg8BRh4,0.0
Mg8(MnN3)3,0.0
Mg7Zr,0.0
Mg7VH16,0.0
Mg7TiH16,0.0
Mg7Ti,0.0
Mg7Sn,0.0
Mg2Sn9O13,0.0
Mg2TaNiO6,0.0
Mg2TaSnO6,0.0
Mg2TaTiO6,0.0
Mg2TcO4,0.0
Mg2Ti,0.0
Mg2Ti9O13,0.0
Mg2Ti5(PO4)6,0.0
Mg2Ti3WS8,0.0
Mg2Sn,0.0
Mg2Ti3MoS8,0.0
Mg2Ti3MnS8,0.0
Mg2Ti3InS8,0.0
Mg2Ti3CrS8,0.0
Mg2Si3,0.0
Mg2Si,0.0
Mg2TiBO5,0.0
Mg2Si4O11,0.0
Mg2TiCo3S8,0.0
Mg2TiFe3S8,0.0
Mg2Zn,0.0
Mg2ZnAs2,0.0
Mg2ZnPd,0.0
Mg2ZnSb2,0.0
Mg3(Al9Mo)2,0.0
Mg3(Al9V)2,0.0
Mg3(AlCu2)2,0.0
Mg30AlSnO32,0.0
Mg30AlFeO32,0.0
Mg30AlCrO32,0.0
Mg30AlCO32,0.0
Mg30AlBiO32,0.0
Mg3(Ni10P3)2,0.0
Mg3(Ni10B3)2,0.0
Mg3(Mo3Se4)4,0.0
Mg3(MnAl9)2,0.0
Mg3(FeN2)2,0.0
Mg3(TaAl9)2,0.0
Mg2V3FeS8,0.0
Mg2TlPb,0.0
Mg2TiSbO6,0.0
Mg2V3InS8,0.0
Mg2TiNi3S8,0.0
Mg2TiN2,0.0
Mg2TiMn3S8,0.0
Mg2TiIn3S8,0.0
Mg2TiGa3S8,0.0
Mg2TiNb2O8,0.0
Mg2TiCr3S8,0.0
Mg2VB2Ir5,0.0
Mg2W3O8,0.0
Mg2VWO6,0.0
Mg2VNi3S8,0.0
Mg2VN2,0.0
Mg2VIn3S8,0.0
Mg2VGa3S8,0.0
Mg2VCr3S8,0.0
Mg2VCo3S8,0.0
Mg2VO4,0.0
Mg2Ga,0.0
Mg2Ga5Cu6,0.0
Mg2GaPd,0.0
Mg2GeB2Rh5,0.0
Mg2Hg,0.0
Mg2In,0.0
Mg2Ir3,0.0
Mg2IrAu,0.0
Mg2IrPd,0.0
Mg2Mn3WS8,0.0
Mg2Mn3VS8,0.0
Mg2Mn3NiS8,0.0
Mg2Mn3InS8,0.0
Mg2Mn3GaS8,0.0
Mg2Mn3CrS8,0.0
Mg2Mn3CoS8,0.0
Mg2Mn3AlS8,0.0
Mg2Mn2O5,0.0
Mg2IrRh,0.0
Mg2Mn3FeS8,0.0
Mg2CuWO6,0.0
Mg2CuIrO6,0.0
Mg2Cu5O7,0.0
Mg2Fe,0.0
Mg2Cu3Ge,0.0
Mg2Cu2O5,0.0
Mg2Cu,0.0
Mg2CrNi3S8,0.0
Mg2CrN3,0.0
Mg2Mn9O13,0.0
Mg2Fe2(SiO4)3,0.0
Mg2FeO4,0.0
Mg2FeN2,0.0
Mg2FeIrO6,0.0
Mg2FeB2Ir5,0.0
Mg2MnAs2,0.0
Mg2MnB2Ir5,0.0
Mg2Sc,0.0
Mg2Sc3MnS8,0.0
Mg2RuN3,0.0
Mg2RhAu,0.0
Mg2Pt,0.0
Mg2Sc3TiS8,0.0
Mg2Sc3WS8,0.0
Mg2ScV3S8,0.0
Mg2ScTi3S8,0.0
Mg2PdRh,0.0
Mg2PdN2,0.0
Mg2Nb2SbO8,0.0
Mg2Nb2MoO8,0.0
Mg2Nb2CuO8,0.0
Mg2Nb2BiO8,0.0
Mg2MoN3,0.0
Mg2MnV3S8,0.0
Mg2MnNi3S8,0.0
Mg2MnIrO6,0.0
Mg2MnIn3S8,0.0
Mg2MnGa3S8,0.0
Mg2MnGa3,0.0
Mg2MnFe3S8,0.0
Mg2MnCr3S8,0.0
Mg2MnN2,0.0
Mg2PdPt,0.0
Mg2Ni,0.0
Mg2Ni3P,0.0
Mg2Pd,0.0
Mg2Pb,0.0
Mg2OsN3,0.0
Mg2NiRh,0.0
Mg2NiIr,0.0
Mg2NiH4,0.0
Mg2NiH2,0.0
Mg2NiB2Ir5,0.0
Mg2Ni9O13,0.0
Mg2NiN2,0.0
Mg30AlZnO32,0.0
Mg3Tl,0.0
Mg3V2(GeO4)3,0.0
Mg3V2(SiO4)3,0.0
Mg3Zn,0.0
Mg3Zn3As4,0.0
Mg3Zr,0.0
Mg4Cu11O15,0.0
Mg3TiNi2,0.0
Mg4As6Ir7,0.0
Mg4AlSi3,0.0
Mg4Al2H12CO18,0.0
Mg44Rh7,0.0
Mg41Al67,0.0
Mg3TiH8,0.0
Mg3Ti9O20,0.0
Mg3Ti4,0.0
Mg3Si2,0.0
Mg3Sc,0.0
Mg3Sb,0.0
Mg3ScZn8,0.0
Mg4CuNi,0.0
Mg3Ti,0.0
Mg3Sn,0.0
Mg3Si8Ir3,0.0
Mg4Sn6Pt5,0.0
Mg4Zn7,0.0
Mg5Au,0.0
Mg5Al7O16,0.0
Mg4VN4,0.0
Mg5(Si8Pt5)2,0.0
Mg5(Si8Pd5)2,0.0
Mg3Ru2,0.0
Mg4Sc3(SiO3)8,0.0
Mg4Sc,0.0
Mg4MnN4,0.0
Mg3Ru,0.0
Mg30TiBO32,0.0
Mg30TiCdO32,0.0
Mg30TiSnO32,0.0
Mg30TiZnO32,0.0
Mg30VCoO32,0.0
Mg30ZnBiO32,0.0
Mg30ZnCuO32,0.0
Mg3Au,0.0
Mg3Al8FeSi6,0.0
Mg3Al(SiO4)3,0.0
Mg3Al,0.0
Mg30TiAlO32,0.0
Mg3Ag2(GeO4)3,0.0
Mg30SnBiO32,0.0
Mg30CuSnO32,0.0
Mg30CuCO32,0.0
Mg30CrBiO32,0.0
Mg30FeBO32,0.0
Mg30CoNiO32,0.0
Mg30CoCuO32,0.0
Mg30CdFeO32,0.0
Mg30CoSiO32,0.0
Mg30FeBiO32,0.0
Mg30FeCoO32,0.0
Mg30NbFeO32,0.0
Mg30NbCuO32,0.0
Mg30NbCO32,0.0
Mg30FeCO32,0.0
Mg30NbBiO32,0.0
Mg30MnCuO32,0.0
Mg30MnAlO32,0.0
Mg30FeSnO32,0.0
Mg30FeSiO32,0.0
Mg30FeCuO32,0.0
Mg3B2Rh5,0.0
Mg3Bi,0.0
Mg3In,0.0
Mg3InAg4,0.0
Mg3Hg,0.0
Mg3Ge,0.0
Mg3Ga7Co2,0.0
Mg3Ga,0.0
Mg3Ir,0.0
Mg3Pt,0.0
Mg3Pd,0.0
Mg3Pb,0.0
Mg3Ni2O7,0.0
Mg3Ni,0.0
Mg3MnNi2,0.0
Mg3Mn3(BO5)2,0.0
Mg3Mn2(SiO4)3,0.0
Mg3Cd,0.0
Mg3Bi2,0.0
Mg3Bi2(AsO6)2,0.0
Mg3Co2O7,0.0
Mg3FeO4,0.0
Mg3Fe4(BiO4)6,0.0
Mg3Fe3O8,0.0
Mg3Cu2(PO4)3,0.0
Mg3Co,0.0
Mg3Cu(SnS4)2,0.0
Mg3CrO4,0.0
MnCd2TeO6,0.0
MnCd3,0.0
Nd2Te5,0.0
Nd2TiCuO6,0.0
Nd2Tl,0.0
Nd2Tl(MoO4)4,0.0
Nd2TlCd,0.0
Nd2TlHg,0.0
Nd2TlIn,0.0
Nd2Tm,0.0
Nd2US5,0.0
Nd2UTe4,0.0
Nd2UTe5,0.0
Nd2Zn15Ge2,0.0
Nd3(Al3Ru)4,0.0
Nd3(Al3Os)4,0.0
Nd3(AgSn)4,0.0
Nd2ZnSb4,0.0
Nd2ZnRu,0.0
Nd2ZnIr,0.0
Nd2Te3,0.0
Nd2ZnIn,0.0
Nd2ZnAg,0.0
Nd2Zn5Sn,0.0
Nd2Zn5Pb,0.0
Nd2Zn17,0.0
Nd2ZnHg,0.0
Nd2Tc2O7,0.0
Nd2Ta6O19,0.0
Nd2SnS5,0.0
Nd2SbO2,0.0
Nd2Sb4Ir3,0.0
Nd2Sb,0.0
Nd2ReC2,0.0
Nd2ScSi2,0.0
Nd2Re3Si5,0.0
Nd2PdRu3,0.0
Nd2Pd2Pb,0.0
Nd2P7Rh12,0.0
Nd2NiO4,0.0
Nd2Re2Si2C,0.0
Nd2Si3Ni,0.0
Nd2Sn4Rh,0.0
Nd2SmS4,0.0
Nd2Si5Ni3,0.0
Nd2Si4Ru3Rh,0.0
Nd2Si3Rh,0.0
Nd2Si3Pd,0.0
Nd2Si5Rh3,0.0
Nd3(Co2Sn)4,0.0
Nd3Eu,0.0
Nd3Fe29,0.0
Nd3Fe3Sb7,0.0
Nd3Ga,0.0
Nd3Ga10Ni,0.0
Nd3Ga2,0.0
Nd3GaCoS7,0.0
Nd3GaCoSe7,0.0
Nd3GaNiS7,0.0
Nd3Ge13Ir4,0.0
Nd3Ge13Os4,0.0
Nd3Ge13Rh4,0.0
Nd3Ge13Ru4,0.0
Nd3Ge5,0.0
Nd3IrO7,0.0
Nd3Ir,0.0
Nd3In5,0.0
Nd3ErFe34,0.0
Nd3In4Ge,0.0
Nd3HfSb5,0.0
Nd3Er,0.0
Nd3Al,0.0
Nd3Ag,0.0
Nd3AlCoS7,0.0
Nd3(SiNi3)2,0.0
Nd3(MnSn)4,0.0
Nd3(Si3Pd10)2,0.0
Nd3(CuGe)4,0.0
Nd3AlNi8,0.0
Nd3Au,0.0
Nd3Cu4(P2O)2,0.0
Nd3CoGe2,0.0
Nd3Co6Sn5,0.0
Nd3Co4Sn13,0.0
Nd3Co29(Si2B5)2,0.0
Nd3AlNiS7,0.0
Nd3Co11B4,0.0
Nd3Cd2Si3O13,0.0
Nd3Cd,0.0
Nd3Bi(Ru2O7)2,0.0
Nd3BeCrS7,0.0
Nd3Au4,0.0
Nd3Co,0.0
Nd2NiGe6,0.0
Nd2Fe15Co2,0.0
Nd2Fe15Co2H3,0.0
Nd2Fe17C3,0.0
Nd2Fe17H3,0.0
Nd2Fe17N2,0.0
Nd2Fe20Mo4N,0.0
Nd2Fe20Si2C,0.0
Nd2Fe23B3,0.0
Nd2Fe2Se2O3,0.0
Nd2Fe3CoSi4,0.0
Nd2FeCo17Si8,0.0
Nd2FeGe4,0.0
Nd2Ga5Cu3,0.0
Nd2Ga3Cu,0.0
Nd2Fe15(SiH)2,0.0
Nd2Ga12Pd,0.0
Nd2Ga12Ni,0.0
Nd2FeSi3,0.0
Nd2FeSi2Ru,0.0
Nd2FeSb4,0.0
Nd2FeNiO6,0.0
Nd2Ga2Co15,0.0
Nd2Fe14C,0.0
Nd2Fe14B,0.0
Nd2CoO4,0.0
Nd2Co7B3,0.0
Nd2Co5B2,0.0
Nd2Co3Ge5,0.0
Nd2CoRuO6,0.0
Nd2Co2SiC,0.0
Nd2Co23B3,0.0
Nd2Co19Si3,0.0
Nd2Co17,0.0
Nd2Co3,0.0
Nd2CoSb4,0.0
Nd2Fe12P7,0.0
Nd2CuSi3Rh2,0.0
Nd2CuRu,0.0
Nd2CoSi3,0.0
Nd2CuGe6,0.0
Nd2Cu2O5,0.0
Nd2GaNi2,0.0
Nd2Ge2Ru,0.0
Nd2Ge3Ir,0.0
Nd2Mn3Cu9As7,0.0
Nd2Mn2CuSi3,0.0
Nd2Mn17C2,0.0
Nd2MgTl,0.0
Nd2Mn3FeGe4,0.0
Nd2MgTi2S2O5,0.0
Nd2MgSi2,0.0
Nd2MgNi2,0.0
Nd2MgIn,0.0
Nd2MgGe2,0.0
Nd2MgCu2,0.0
Nd2Mn3FeSi4,0.0
Nd2MnCoO6,0.0
Nd2NiB10,0.0
Nd2Ni7P4,0.0
Nd2Ni5B4,0.0
Nd2Mn5Co12,0.0
Nd2Ni17,0.0
Nd2Ni12P5,0.0
Nd2Ni12As7,0.0
Nd2MoC2,0.0
Nd2Mo2O7,0.0
Nd2MnFe3Si4,0.0
Nd2MnFe3Ge4,0.0
Nd2Ni12P7,0.0
Nd3Lu,0.0
Nd2MgAl,0.0
Nd2Mg,0.0
Nd2In3Cu,0.0
Nd2In,0.0
Nd2In3Ni,0.0
Nd2Ge9,0.0
Nd2Ge5Rh3,0.0
Nd2Ge5Ir3,0.0
Nd2Ge3Pt,0.0
Nd2Ge6Pd,0.0
Nd2In8Co,0.0
Nd2InAg,0.0
Nd2IrRu,0.0
Nd2IrPd,0.0
Nd2IrAu,0.0
Nd2Ir7,0.0
Nd2In8Pd,0.0
Nd2InPd2,0.0
Nd2InNi2,0.0
Nd2InGe2,0.0
Nd2InAu2,0.0
Nd2Co14B,0.0
Nd3Mn2Sb3O14,0.0
NaSrMnBiO6,0.0
NaSrMnSnO6,0.0
NaSrNb2O6,0.0
NaSrNbBiO6,0.0
NaSrNbSbO6,0.0
NaSrNdMnO6,0.0
NaSrPrFeO6,0.0
NaSrPrNbO6,0.0
NaSrPrSbO6,0.0
NaSrSmFeO6,0.0
NaTa4O8,0.0
NaSrZrWO6,0.0
NaSrYMnO6,0.0
NaSrTl2,0.0
NaSrTbVO6,0.0
NaSrTbMnO6,0.0
NaSrTbFeO6,0.0
NaSrTbBiO6,0.0
NaSrSnWO6,0.0
NaSrSnBiO6,0.0
NaSrTbNbO6,0.0
NaSrMg14,0.0
NaSrLaFeO6,0.0
NaSr2OsO6,0.0
NaSr2MnO6,0.0
NaSr2In,0.0
NaSr2(SnAs)6,0.0
NaSr2(FeAs)6,0.0
NaSr11(PtO6)3,0.0
NaSr2Ta3O9,0.0
NaSnSb,0.0
NaSnPd2,0.0
NaSnO,0.0
NaSn3,0.0
NaSnS2,0.0
NaSr2Tl,0.0
NaSr3IrO6,0.0
NaSrGdMnO6,0.0
NaSrFeBiO6,0.0
NaSrEuWO6,0.0
NaSrDyFeO6,0.0
NaSrCeMnO6,0.0
NaSrCaMnO6,0.0
NaSr4(FeAs)10,0.0
NaSn2Pd3,0.0
NaTa7O19,0.0
NaTl,0.0
NaTl2,0.0
NaTl2In,0.0
NaTl2Pb,0.0
NaTl2Pd,0.0
NaTl2Sb,0.0
NaTl3Cu4(TeO6)2,0.0
NaV10O15,0.0
NaV(GeO3)2,0.0
NaUO4,0.0
NaTiVS4,0.0
NaU2Cl6,0.0
NaU(TeO4)2,0.0
NaU2F9,0.0
NaTiS2,0.0
NaTi2TlO6,0.0
NaTi2O4,0.0
NaTi2HO5,0.0
NaTi(SiO3)2,0.0
NaThTi2O6,0.0
NaTeAu,0.0
NaTbTl2,0.0
NaTi2(P2O7)2,0.0
NaTbIrO4,0.0
NaTiP2O7,0.0
NaTiO2,0.0
NaTi8O13,0.0
NaTi6O12,0.0
NaTi5Se8,0.0
NaTi5O10,0.0
NaTi4O8,0.0
NaTi4(CuO4)3,0.0
NaSn2,0.0
NaSmTi4O12,0.0
Nd3Sn7,0.0
Nd3SnN,0.0
Nd3Ta(ClO2)3,0.0
Nd3Th,0.0
Nd3Ti3(SeO4)2,0.0
Nd3Ti4O12,0.0
Nd3Tl,0.0
Nd3Tl5,0.0
Nd3Y,0.0
Nd4CrS7,0.0
Nd4CdIr,0.0
Nd3Sn5Au6,0.0
Nd4Br9,0.0
Nd4(TmS2)11,0.0
Nd4(FeB2)3,0.0
Nd4(ErS2)11,0.0
Nd3ZrSb5,0.0
Nd3Zr,0.0
Nd4Bi3,0.0
Nd3Sn13Rh4,0.0
Nd3Sn13Ir4,0.0
Nd3Sm,0.0
Nd3PbN,0.0
Nd3OsO7,0.0
Nd3NiSn7,0.0
Nd3NiGe2,0.0
Nd3Pd4,0.0
Nd3Ni3Bi4,0.0
Nd3Ni13B2,0.0
Nd3NbSb5,0.0
Nd3MnBi5,0.0
Nd3Ni2Sn7,0.0
Nd4CuNiO8,0.0
Nd3Pt2,0.0
Nd3Si4Ni29,0.0
Nd3Si,0.0
Nd3Pt4,0.0
Nd3Sc,0.0
Nd3RuO7,0.0
Nd3Ru,0.0
Nd3Rh2,0.0
Nd3ReO7,0.0
Nd4Fe28BC,0.0
Nd4Fe29Si5,0.0
Nd5Cu5O13,0.0
Nd5CoSi2,0.0
Nd5Co21B4,0.0
Nd5Co19B6,0.0
Nd5(MnB3)2,0.0
Nd5(In2Pt)2,0.0
Nd5(FeB3)2,0.0
Nd5(FeB)18,0.0
Nd5(BO3)4,0.0
Nd5Co19,0.0
NaSmHf4O12,0.0
NaSmAu2,0.0
NaSm2Se3,0.0
NaSm2IrO6,0.0
NaSm2Cl6,0.0
NaSi6,0.0
NaSi34,0.0
NaSi2Pd3,0.0
Nd5In11Ni6,0.0
Nd5Ge4,0.0
Nd5Ge3O13,0.0
NaSiAu3,0.0
Nd4V5(Si2O11)2,0.0
Nd4MgNi,0.0
Nd4MgIr,0.0
Nd4MgCo,0.0
Nd4Mg7Ge6,0.0
Nd4In8Ni7,0.0
Nd4MgPt,0.0
Nd4In5S13,0.0
Nd4Ge7,0.0
Nd4Ge3Rh4,0.0
Nd4FeSn8,0.0
Nd4In21Pd10,0.0
Nd4V3Fe25B2,0.0
Nd4MgTa4Ti4O24,0.0
Nd4Ti3Co2(Si2O11)2,0.0
Nd4Si7,0.0
Nd4Si5,0.0
Nd4S7,0.0
Nd4Os6O19,0.0
Nd4O3F7,0.0
Nd4Ni3O10,0.0
Nd4MnSn8,0.0
Nd4MnSe6O,0.0
Nd4Rh,0.0
NaV2P2(H4O7)2,0.0
Nd2Co12P7,0.0
NbNi3,0.0
NbNi5(PO4)6,0.0
NbNi6Mo,0.0
NbNiAs,0.0
NbNiAs2,0.0
NbNiB,0.0
NbNiB2,0.0
NbNiP,0.0
NbNiTe2,0.0
NbNiTe5,0.0
NbPRu,0.0
NbPRh,0.0
NbP2O7,0.0
NbP2,0.0
NbOs3,0.0
NbO2,0.0
NbO,0.0
NbNi2,0.0
NbInSe2,0.0
NbInRu2,0.0
NbInNi,0.0
NbHg3F6,0.0
NbH2,0.0
NbI3,0.0
NbPS,0.0
NbIr3,0.0
NbNi11(BO5)4,0.0
NbNi,0.0
NbMoW,0.0
NbMoSe4,0.0
NbMoS4,0.0
NbMoS3,0.0
NbMoO4,0.0
NbMoC2,0.0
NbMo,0.0
NbMoSe3,0.0
NbGeRu2,0.0
NbPd2,0.0
NbS2,0.0
NbS3,0.0
NbSBr,0.0
NbSI,0.0
NbSN,0.0
NbSb,0.0
NbSe2,0.0
NbSeS,0.0
NbSeN,0.0
NbSe4,0.0
NbSe3,0.0
NbReSi,0.0
NbReMo,0.0
NbPd4,0.0
NbPd3,0.0
NbRh2,0.0
NbRh3,0.0
NbS,0.0
NbRu3C,0.0
NbRhO4,0.0
NbGePt,0.0
NbB2W,0.0
NbB4Mo3,0.0
NbBi3O7,0.0
NbC,0.0
NbCd3,0.0
NbCo,0.0
NbCo2,0.0
NbCo2Sn,0.0
NbCo3,0.0
NbCoTe2,0.0
NbCoSi,0.0
NbCoSb,0.0
NbCoGe,0.0
NbB,0.0
NbCoB2,0.0
NbCo3O8,0.0
NbCoAs,0.0
NbAu2,0.0
NbAs2,0.0
NbAl2Ni9,0.0
NbAgWO7,0.0
Nb9Ni4Ge,0.0
Nb9IrSe20,0.0
Nb9IrS20,0.0
NbAl3,0.0
Nb8Tl8O25,0.0
Nb8S8O45,0.0
Nb8PtSe20,0.0
Nb8P5,0.0
Nb9Co4Ge,0.0
NbCr2,0.0
NbAlCo2,0.0
NbAs,0.0
NbAlZn,0.0
NbAlVC,0.0
NbAlV2,0.0
NbAlOs2,0.0
NbAlCo,0.0
NbAlNi2,0.0
NbAlCr4,0.0
NbAlCo4,0.0
NbAlNi,0.0
NbFeGe,0.0
NbFeB,0.0
NbFe7(PO4)12,0.0
NbFeO4,0.0
NbFe3,0.0
NbFe,0.0
NbF3,0.0
NbGe2,0.0
NbGaTc2,0.0
NbGaOs2,0.0
NbGaNi2,0.0
NbFeRu2,0.0
NbGaCu,0.0
NbGa3,0.0
NbFeSi2,0.0
NbFeSi,0.0
NbGaCo2,0.0
NbCuTe2,0.0
NbCu3(PO4)4,0.0
NbCr3(CuS4)2,0.0
NbCr3(AgS4)2,0.0
NbCr3,0.0
NbCuSe2,0.0
NbCu(PO4)2,0.0
NbCrSi,0.0
NbCrSe5,0.0
NbCrS5,0.0
NbCrO4,0.0
NbCrFe,0.0
NbCrF6,0.0
NbCr3S8,0.0
NbCr3(PO4)6,0.0
Nd2CdSb4,0.0
NbSi4Mo,0.0
NbSiGe,0.0
Nd(SmSb)3,0.0
Nd(TiCo5)2,0.0
Nd(ZnSi)2,0.0
Nd10(B3C4)3,0.0
Nd10As8Au3O10,0.0
Nd10US16,0.0
Nd11Cd45,0.0
Nd11Hg45,0.0
Nd11In9Ni4,0.0
Nd11In9Pd4,0.0
Nd11Sn10,0.0
Nd12Si5Se28,0.0
Nd12Ni6Sn,0.0
Nd12Ni6Pb,0.0
Nd12InPt7,0.0
Nd12InNi6,0.0
Nd12InCo6,0.0
Nd12Co6Sn,0.0
Nd12C6I17,0.0
Nd12(ReC3)5,0.0
Nd12(OsC3)5,0.0
Nd12(MnC3)5,0.0
Nd11Ti16O48,0.0
Nd12Cu6O25,0.0
Nd(SiRh)2,0.0
Nd(SiPt)2,0.0
Nd(PPt)2,0.0
Nd(P3Ru)4,0.0
Nd(P3Os)4,0.0
Nd(NiSn)2,0.0
Nd(PRh)2,0.0
Nd(NiSb)2,0.0
Nd(NiP)2,0.0
Nd(NiGe)2,0.0
Nd(NiBi)2,0.0
Nd(NiAs)2,0.0
Nd(Ni2Sn)2,0.0
Nd13Cd58,0.0
Nd(SiPd)2,0.0
Nd(SiNi)2,0.0
Nd(SiIr)2,0.0
Nd(PdO2)2,0.0
Nd(SiAu)2,0.0
Nd(SeO4)3,0.0
Nd13Mg2Si4B8O43,0.0
Nd14Au51,0.0
Nd25(B7C13)2,0.0
Nd25Ni49P33,0.0
Nd26Ga7Co10,0.0
Nd2AgIr,0.0
Nd2Al,0.0
Nd2Al2Fe15,0.0
Nd2Al3Ga,0.0
Nd2Al3Ge,0.0
Nd2Al3Ge4,0.0
Nd2AlCo2,0.0
Nd2AlGe6,0.0
Nd2AlNi2,0.0
Nd2Au,0.0
Nd2B5,0.0
Nd2CdHg,0.0
Nd2CdGe2,0.0
Nd2CdCu2,0.0
Nd23Mg4Ru7,0.0
Nd2CdAg,0.0
Nd2C3,0.0
Nd2BiN,0.0
Nd2Bi,0.0
Nd2BC,0.0
Nd2CdAu2,0.0
Nd23Mg4Rh7,0.0
Nd23Mg4Pt7,0.0
Nd23Mg4Ni7,0.0
Nd2(CoNi)5,0.0
Nd2(CoCu)5,0.0
Nd2(Al3Rh)3,0.0
Nd2(Al3Ir)3,0.0
Nd2(Al3Co)3,0.0
Nd2(CuAg)5,0.0
Nd18Mn49Ni20,0.0
Nd15(B3C10)2,0.0
Nd14Cl33,0.0
Nd17Au36,0.0
Nd14Ag51,0.0
Nd2(Fe7B2)3,0.0
Nd2(Ga3Ru)3,0.0
Nd23Cd4Ru7,0.0
Nd23Cd4Rh7,0.0
Nd23Cd4Ni7,0.0
Nd2(Ga3Co)3,0.0
Nd20Mn19O60,0.0
Nd2(ZnGe2)3,0.0
Nd2(Zn2Ge)3,0.0
Nd2(ReB2)3,0.0
Nd2(Mo3Se4)5,0.0
Nd2(InSn)3,0.0
Nd2(InCu3)3,0.0
Nd20(Si3Ru)3,0.0
Nd(Mo3Se4)2,0.0
Nd(Mo3S4)2,0.0
NbVNi,0.0
NbVO4,0.0
NbVP,0.0
NbVSi4,0.0
NbW,0.0
NbW3S8,0.0
NbWSe4,0.0
NbZn(PbO3)2,0.0
NbZn16,0.0
Nd(Al2Fe)4,0.0
Nd(Al2Cr)4,0.0
NbVF6,0.0
NbZnRh2,0.0
NbZnCo2,0.0
NbZn3,0.0
NbVCr,0.0
NbVCo6,0.0
NbVCo,0.0
NbSnSb,0.0
NbSnRu2,0.0
NbSn2,0.0
NbTc2Sn,0.0
NbSiTc2,0.0
NbSiRu,0.0
NbSiRh,0.0
NbSiPt,0.0
NbSiPd,0.0
NbSiNi,0.0
NbSiIr,0.0
NbSiRu2,0.0
NbTe2,0.0
NbTe4,0.0
NbVB4,0.0
NbV5(PO4)6,0.0
NbV3Fe2(PO4)6,0.0
NbV3Cu2(PO4)6,0.0
NbV2O7,0.0
NbTe5Pd,0.0
NbTe4Os,0.0
NbTe4Ir,0.0
NbV,0.0
Nd(Al5Os)2,0.0
Nd(AlAu)2,0.0
Nd(GeAu)2,0.0
Nd(Ge3Pt)4,0.0
Nd(GaFe)6,0.0
Nd(GaCu)2,0.0
Nd(Ga4Fe)2,0.0
Nd(Ga3Co)3,0.0
Nd(Ga2Fe)4,0.0
Nd(FeGe)2,0.0
Nd(FeB)4,0.0
Nd(FeAs3)4,0.0
Nd(Fe5W)2,0.0
Nd(Fe5Si)2,0.0
Nd(GePd)2,0.0
Nd(GePt)2,0.0
Nd(MnSi)2,0.0
Nd(MnGe)6,0.0
Nd(MnFe5)2,0.0
Nd(MnCo2)4,0.0
Nd(MnAl2)4,0.0
Nd(Mg10Ni)2,0.0
Nd(InCu)6,0.0
Nd(In2Pd)2,0.0
Nd(In2Au)2,0.0
Nd(GeRh)2,0.0
NbSiAs,0.0
Nd(Fe5Re)2,0.0
Nd(BRu)2,0.0
Nd(BRh)4,0.0
Nd(BOs)4,0.0
Nd(BOs)2,0.0
Nd(BIr)4,0.0
Nd(BIr)2,0.0
Nd(BRu)4,0.0
Nd(AsRh)2,0.0
Nd(AsPd)2,0.0
Nd(As3Os)4,0.0
Nd(AlSi)2,0.0
Nd(Cd10Ni)2,0.0
Nd(Co5Mo)2,0.0
Nd(CuO2)2,0.0
Nd(CrFe5)2,0.0
Nd(Co2B)6,0.0
Nd(CrB3)2,0.0
Nd(CoP3)4,0.0
Nd(CoP)2,0.0
Nd(CoGe)2,0.0
Nd(CoB)4,0.0
Nd(CoB)2,0.0
Nd(CoAs)2,0.0
NaV3(PO4)3,0.0
NaV3O6,0.0
NdScGe,0.0
NdSe2,0.0
NdSi,0.0
NdSi2,0.0
NdSi2Ni,0.0
NdSi2Ru,0.0
NdSi2Ru3,0.0
NdSiPt,0.0
NdSiPd2,0.0
NdSiPd,0.0
NdSiOs2C,0.0
NdSiNi4,0.0
NdSc3,0.0
NdSiNi,0.0
NdSiGe,0.0
NdSiAg,0.0
NdSi3Ru,0.0
NdSi3Rh,0.0
NdSi3Ir,0.0
NdSiIr,0.0
NdSbSe,0.0
NdRe2,0.0
NdPt5,0.0
NdPt3,0.0
NdPt2,0.0
NdPt,0.0
NdRe2SiC,0.0
NdPd,0.0
NdPbAu2,0.0
NdPbAu,0.0
NdPb3,0.0
NdSiPt3,0.0
NdRh3,0.0
NdSbPd,0.0
NdSbIr,0.0
NdSbAu,0.0
NdSb2Pd,0.0
NdSb2Au,0.0
NdRh2,0.0
NdSb2,0.0
NdS2,0.0
NdS,0.0
NdRu2,0.0
NdRhC2,0.0
NdPOs2C,0.0
NdSiRu,0.0
NdTiFe11H,0.0
NdTiGe,0.0
NdTiO3,0.0
NdTl,0.0
NdTl3,0.0
NdTlAg2,0.0
NdTlAu2,0.0
NdTlCd,0.0
NdTlPd,0.0
NdTlZn,0.0
NdTm,0.0
NdTm3,0.0
NdTmIn2,0.0
NdYCo14B,0.0
NdY3(Co4B)4,0.0
NdY3,0.0
NdWO5,0.0
NdVGe3,0.0
NdV2(FeCo)5,0.0
NdUCo10,0.0
NdU2S5,0.0
NdV2Fe10N,0.0
NdThUS5,0.0
NdTh9O20,0.0
NdTh3,0.0
NdSmZn2,0.0
NdSmO2,0.0
NdSmMg2,0.0
NdSm3,0.0
NdSmIn2,0.0
NdSiRu2C,0.0
NdSn3,0.0
NdSnAu,0.0
NdTh,0.0
NdTe3,0.0
NdTe2Se,0.0
NdTe,0.0
NdSn3Ru,0.0
NdSnRh,0.0
NdSnPt,0.0
NdSnPd,0.0
NdSnAu2,0.0
NdPIr,0.0
NdP2,0.0
NdIn7Cu5,0.0
NdInAu,0.0
NdInCu,0.0
NdInCu2,0.0
NdInNi,0.0
NdInNi2,0.0
NdInNi4,0.0
NdInPd,0.0
NdInPd2,0.0
NdInPt,0.0
NdInPt4,0.0
NdMg2Ag,0.0
NdMg2,0.0
NdMg12,0.0
NdMg(NiH)4,0.0
NdLuTl2,0.0
NdLuMg2,0.0
NdLu3,0.0
NdIr5,0.0
NdIr3,0.0
NdIr2,0.0
NdInRh2,0.0
NdInRh,0.0
NdIn3Pt,0.0
NdIn3,0.0
NdIn2Rh,0.0
NdH3,0.0
NdH2,0.0
NdGeRu,0.0
NdGeRh,0.0
NdGePt,0.0
NdHg2,0.0
NdGePd2,0.0
NdGeAu,0.0
NdGe3,0.0
NdGe2Rh,0.0
NdGe2Pt,0.0
NdGe2Pd,0.0
NdHo3,0.0
NdIn2Ni,0.0
NdIn2Ir,0.0
NdIn,0.0
NdI2,0.0
NdHoZn2,0.0
NdHoMg2,0.0
NdHoIn2,0.0
NdHoAl4,0.0
NdHoTl2,0.0
NdNiGe2,0.0
NdNiB4,0.0
NdNiAs,0.0
NdNiGe3,0.0
NdNi4B,0.0
NdNi3,0.0
NdNi,0.0
NdNi5,0.0
NdNb4O12,0.0
NdNiO3,0.0
NdNiRu,0.0
NdOsO4,0.0
NdOs2,0.0
NdO2,0.0
NdNiP,0.0
NdNiSnH2,0.0
NdNiSnH,0.0
NdNiSn,0.0
NdNiSb3,0.0
NdNiSb,0.0
NdYFe14B,0.0
NdNb2CuClO7,0.0
NdMgRh,0.0
NdMgPt,0.0
NdMgPd,0.0
NdMgNi4H7,0.0
NdMgIn,0.0
NdMgSi2,0.0
NdMgHg2,0.0
NdMgCu4,0.0
NdMgCd2,0.0
NdMgAu2,0.0
NdMgAu,0.0
NdMgAg2,0.0
NdMgTl2,0.0
NdMnPO,0.0
NdMnO3,0.0
NdMnGe,0.0
NdMnFeGe2,0.0
NdMgTl,0.0
NdMn5(CuO6)2,0.0
NdMn4(CuO4)3,0.0
NdMn12,0.0
NdMgZn2,0.0
NdMnAsO,0.0
NdGe2Ir,0.0
NdYIn2,0.0
NdYMg2,0.0
Ni3Sn(PO4)4,0.0
Ni3Sn2,0.0
Ni3Sn4,0.0
Ni3SnN,0.0
Ni3Te2,0.0
Ni3Te4,0.0
Ni3W3C,0.0
Ni3W6C,0.0
Ni4Mo,0.0
Ni4GePt5,0.0
Ni4B3,0.0
Ni3Se2,0.0
Ni4(SnSb3)3,0.0
Ni4(PO4)3,0.0
Ni4(GeAs3)3,0.0
Ni4(BiO2)9,0.0
Ni4(Bi4I)3,0.0
Ni43(GeB4)3,0.0
Ni3OF5,0.0
Ni3O4,0.0
Ni3N,0.0
Ni3Mo3N,0.0
Ni3Mo3C,0.0
Ni3Mo2P,0.0
Ni3Ge,0.0
Ni3Bi,0.0
Ni3BO5,0.0
Ni3B,0.0
Ni3Mo,0.0
Ni3S4,0.0
Ni3S2,0.0
Ni3Rh,0.0
Ni3Pt,0.0
Ni3Pb2SeS,0.0
Ni3Pb,0.0
Ni3P4O15,0.0
Ni3P3O13,0.0
Ni3P,0.0
Ni3Au,0.0
Ni4P4O15,0.0
Ni4Ru,0.0
Ni7(Mo3P2)3,0.0
Ni7(P2O7)4,0.0
Ni7(PO4)6,0.0
Ni7Ge4,0.0
Ni7Sn8,0.0
Ni8B3SbO15,0.0
Ni8Bi8S,0.0
Ni8Bi8SI,0.0
Ni8Bi8SI2,0.0
Ni9(SnS)2,0.0
Ni9O10,0.0
Ni9O13,0.0
NiAs2,0.0
NiAs,0.0
NiAgSe2,0.0
Ni6W6C,0.0
Ni9S8,0.0
Ni9S10,0.0
Ni6SnTe2,0.0
Ni6SnSb,0.0
Ni5Ge3,0.0
Ni5Ge2P3,0.0
Ni5As2,0.0
Ni5(PO4)4,0.0
Ni5(P2O7)4,0.0
Ni5(Mo3Se4)8,0.0
Ni5(Mo2As3)6,0.0
Ni5(AsO6)2,0.0
Ni4W,0.0
Ni4Sn3,0.0
Ni5(P3O11)2,0.0
Ni5O6,0.0
Ni5P4,0.0
Ni6Se5,0.0
Ni6SbTe2,0.0
Ni6P7O24,0.0
Ni6OF11,0.0
Ni6O7,0.0
Ni5O7,0.0
Ni6Mo6C,0.0
Ni6Ge2P,0.0
Ni5Te4(BrO6)2,0.0
Ni5Te(PO4)6,0.0
Ni5Sb2,0.0
Ni6Mo2P3,0.0
Ni3(TeO4)2,0.0
Ni(PO3)3,0.0
Ni(PS3)2,0.0
Ni(Pt3O4)4,0.0
Ni(PtO2)3,0.0
Ni(RhO2)2,0.0
Ni(RhSe2)2,0.0
Ni12C8O31,0.0
Ni11As8,0.0
Ni11(GeTe2)2,0.0
Ni10SnP3,0.0
Ni(TePd)2,0.0
Ni(TeO3)4,0.0
Ni(Te4Mo3)2,0.0
Ni(SbO3)2,0.0
Ni(HO)2,0.0
NdZnRh,0.0
NdZnPd,0.0
NdZnAu2,0.0
NdZn3,0.0
NdZn11,0.0
NdZn,0.0
NdYZn2,0.0
NdYO2,0.0
NdZn2Cd,0.0
NdZr3Mn8,0.0
NdZr9O20,0.0
Ni(Bi3O5)4,0.0
Ni(BW)2,0.0
Ni(BO2)2,0.0
Ni(BMo)3,0.0
Ni(BMo)2,0.0
Ni(AuF4)2,0.0
Ni(AgO)2,0.0
Ni,0.0
Ni(AsO3)2,0.0
Ni12P5,0.0
Ni13Sn8P3,0.0
Ni3(AsO4)2,0.0
Ni2W4C,0.0
Ni2SnP,0.0
Ni2SbTe2,0.0
Ni3(BO3)2,0.0
Ni2PdSe2,0.0
Ni2PPd,0.0
Ni2P3O11,0.0
Ni2RhS4,0.0
Ni2P2(SeS)3,0.0
Ni3(BiO2)10,0.0
Ni3(BiS)2,0.0
Ni3(SnS)2,0.0
Ni3(Sn2Pt)2,0.0
Ni3(SbTe)2,0.0
Ni3(PbSe)2,0.0
Ni3(PbS)2,0.0
Ni3(P2O7)2,0.0
Ni3(BiSe)2,0.0
NdYIr2,0.0
Ni20(SnB2)3,0.0
Ni2(SO4)3,0.0
Ni19Ge12,0.0
Ni21(B3Sb)2,0.0
Ni17(GeSe)4,0.0
Ni17(AsO4)12,0.0
Ni16GeP5,0.0
Ni15O16,0.0
Ni2Mo4N,0.0
Ni21(SnP3)2,0.0
Ni2Mo,0.0
Ni2Hg2SF6,0.0
Ni2GeP,0.0
Ni2As3Pd4,0.0
Ni2As2O7,0.0
Ni23Te42,0.0
Ni23B6,0.0
NdGe,0.0
NdGdIr2,0.0
Na7(FeO4)2,0.0
Na7(WO3)12,0.0
Na7(WO3)13,0.0
Na7(WO3)20,0.0
Na7(WO3)8,0.0
Na7Cu7O13,0.0
Na7Ga13,0.0
Na7Mn10O24,0.0
Na7Sr6Nd7Ti20O60,0.0
Na8MgTi2O8,0.0
Na8Li9(FeO4)4,0.0
Na8In6Au11,0.0
Na8Hg3,0.0
Na8Cu2O7,0.0
Na8AsO3,0.0
Na8(WO3)19,0.0
Na8(NiO2)9,0.0
Na8(CuO2)5,0.0
Na7Ti16O32,0.0
Na7Ti11O24,0.0
Na8Al12SO28,0.0
Na7(Cu6S5)2,0.0
Na7(CoO3)2,0.0
Nb2N,0.0
Nb2MoRu,0.0
Nb2MoOs,0.0
Nb2InC,0.0
Nb2GeC,0.0
Nb2GaNi3,0.0
Nb2GaC,0.0
Nb2FeSe4,0.0
Nb2FeS4,0.0
Nb2FeCo3,0.0
Nb2FeB2,0.0
Nb2CuTe4,0.0
Nb2Ni4O9,0.0
Na6ZnSn2,0.0
Na6Zn3B9P6H3O38,0.0
Na6V2P(CO4)4,0.0
Na6V2B4SO16,0.0
Na6V2B4AsO16,0.0
Nb2Ni3Ge,0.0
Nb2O3F2,0.0
Nb2O2F3,0.0
Na6TlSb4,0.0
Nb2CuSe4,0.0
NaBPt3,0.0
NaBi,0.0
NaBi3,0.0
NaBiAsCO7,0.0
NaBiPCO7,0.0
Nd5Ir2,0.0
Nd5Ir3,0.0
Nd5Mg,0.0
Nd5Mg41,0.0
Nd5MgAl4,0.0
Nd5Mn8(PbO8)3,0.0
Nd5Mo3O16,0.0
Nd5Pb3,0.0
Nd5Si4,0.0
Nd5Si3C,0.0
Nd5Si3,0.0
NaB15,0.0
Nd5Sb3,0.0
Nd5S9,0.0
Nd5S4,0.0
Nd5Ru2,0.0
Nd5Rh4,0.0
Nd5Pb4,0.0
Nd5Si10NiRu3,0.0
NaAu2,0.0
Na9Sn4,0.0
Na9U3Si4(O10F)2,0.0
Na9Cu2O7,0.0
Na9(WO3)16,0.0
Na9(WO3)13,0.0
Na9Fe10(SiO3)20,0.0
Na8NiO6,0.0
NaAc,0.0
NaAc2Sn,0.0
NaAs,0.0
NaAlSi,0.0
NaAlGe,0.0
NaAl6Fe3Si6B3O31,0.0
NaAl3,0.0
NaAc2Pb,0.0
NaAg3,0.0
NaAg2Sn,0.0
NaAg2,0.0
NaAcIn2,0.0
NaAcAu2,0.0
Nb2CuO6,0.0
NaZnSb,0.0
NaZr(PO4)2,0.0
NaZr2PdF11,0.0
NaZr2TiF11,0.0
NaZrSi2O7,0.0
Nb,0.0
Nb(Cu3O4)2,0.0
Nb(FeGe)6,0.0
Nb(Mo3S4)2,0.0
Nb(NiP4)4,0.0
Nb(PO3)4,0.0
Nb12Al3In,0.0
Nb12Al3Ge,0.0
Nb10N11O,0.0
NaZnN,0.0
Nb10C7,0.0
Nb10(SnGe)3,0.0
Nb(ZnGa)3,0.0
Nb10Ge6C,0.0
NaZnBi,0.0
NaZn4As3,0.0
NaVS2,0.0
NaVO2,0.0
NaVH8(NF3)2,0.0
NaVF4,0.0
NaV6O15,0.0
NaV6O13,0.0
NaV6O11,0.0
NaV5O8,0.0
NaV4O10,0.0
NaVSiO4,0.0
NaZn3,0.0
NaZn13,0.0
NaYMg14,0.0
NaYIrO4,0.0
NaW2(Br3O)2,0.0
NaW(ClO)2,0.0
Nb12InSn3,0.0
Nb2C,0.0
Nb2Br5,0.0
Nb2B3,0.0
Nb2B2Os,0.0
Nb2AsC,0.0
Nb2As,0.0
Nb2AlC,0.0
Nb2AlB6,0.0
Nb2B2Mo,0.0
Nb2AgS4,0.0
Nb2CS2,0.0
Nb2CuCS2,0.0
Nb2Cu3O8,0.0
Nb2CrRu,0.0
Nb2CrOs,0.0
Nb2CrMo2,0.0
Nb2CrB2,0.0
Nb2Co4O9,0.0
Nb2Co3Si,0.0
Nb2Co3Ge,0.0
Nb2Co2Si3,0.0
Nb2Co12P7,0.0
Nb2Cr4Si5,0.0
Nb25S48,0.0
Nb15IrS32,0.0
Nb14S5,0.0
Nb13Co40Si31,0.0
Nb13(Pb3O10)5,0.0
Nb12ZnSe16,0.0
Nb16N13,0.0
Nb12TlTe15As,0.0
Nb12Tl(Te3As)4,0.0
Nb12PbSe16,0.0
Nb12O29,0.0
Nb24Ge7Te48,0.0
Nb16N9,0.0
Nb17Ir3S40,0.0
Nb21S8,0.0
Nb20(O13F7)3,0.0
Nb2(PO4)3,0.0
Nb16Tl16O53,0.0
Nb2(AlGa)3,0.0
Nb19Fe20,0.0
Nb18P3O50,0.0
Nb17Ir3Se40,0.0
Nb2(CrSi)3,0.0
Nd5Sn4,0.0
Nd5Ti5O17,0.0
NdCrGe3,0.0
NdCrS3,0.0
NdCrSb3,0.0
NdCrSe3,0.0
NdCu,0.0
NdCu2,0.0
NdCu3(RuO3)4,0.0
NdCu3Pd2,0.0