formula,band_gap
YMg6Zn,0.0
YMg6Mn,0.0
YMg6Ga,0.0
YMg6Fe,0.0
YMg6CuO8,0.0
YMg6Zr,0.0
YMgGa,0.0
YMgCu4,0.0
YMgAu2,0.0
YMgAu,0.0
YMgAg,0.0
YMg7,0.0
YMgAlGe2,0.0
YSiAg,0.0
Zr4Co4Ge7,0.0
Zr4Co4Si7,0.0
Zr4Co7Ge6,0.0
Zr4CoNi,0.0
Zr4CoP,0.0
Zr4CuP,0.0
Zr4CuPd,0.0
Zr4CuSb7,0.0
Zr4Fe2N,0.0
Zr4Fe4Si7,0.0
Zr4FeCo,0.0
Zr4FeNi,0.0
Zr4FeSe8,0.0
Zr4In5Co2,0.0
Zr4Pd2N,0.0
Zr4Pd,0.0
Zr4Os2N,0.0
Zr4Os2C,0.0
Zr4O,0.0
Zr4NiP,0.0
Zr4Co2N,0.0
Zr4NiMo,0.0
Zr4Ni2N,0.0
Zr4Ni2H9,0.0
Zr4NbGa3,0.0
Zr4NbAl3,0.0
Zr4MoC5,0.0
Zr4Ir2N,0.0
Zr4CN3,0.0
Zr4C3N,0.0
Zr3TiFe8,0.0
Zr3TiCu2,0.0
Zr3Ti2Si3,0.0
Zr3Te,0.0
Zr3TiMn8,0.0
Zr3Sn,0.0
Zr3Si2,0.0
Zr3Si,0.0
Zr4Pd2O,0.0
Zr3V,0.0
Zr4BN3,0.0
Zr4Al3,0.0
Zr4(B5Ir4)3,0.0
Zr4(AlC2)3,0.0
Zr3ZnN,0.0
Zr3Zn,0.0
Zr3V9Ge10,0.0
Zr3V3C,0.0
Zr3ZnCu2,0.0
Zr3Se4,0.0
Zr4Pt2N,0.0
Zr4Rh2N,0.0
Zr5FeSb3,0.0
Zr5Ga3,0.0
Zr5Ga4,0.0
Zr5GaPb3,0.0
Zr5Ge3,0.0
Zr5Ge4,0.0
Zr5GeSb3,0.0
Zr5In3Ag,0.0
Zr5In3Cu,0.0
Zr5InPb3,0.0
Zr5Ir3,0.0
Zr5Sb3C,0.0
Zr5Sb3As,0.0
Zr5Sb3,0.0
Zr5S8,0.0
Zr5Re24,0.0
Zr5CuSb3,0.0
Zr5Pt3,0.0
Zr5NiSb9,0.0
Zr5NiSb3,0.0
Zr5N5O2,0.0
Zr5Pb3,0.0
Zr5CuBi3,0.0
Zr5CrSb2,0.0
Zr5AgPb3,0.0
Zr54Os17,0.0
Zr5(ZnSi)4,0.0
Zr5(VSb3)6,0.0
Zr5(Te2P)2,0.0
Zr5(In2Rh)2,0.0
Zr5AgSb3,0.0
Zr4TaGe4,0.0
Zr4Ru2N,0.0
Zr4WC5,0.0
Zr4Re2N,0.0
Zr5Al3C,0.0
Zr5CoSb3,0.0
Zr5Co4Ni,0.0
Zr5CdSb2,0.0
Zr5AlSn3,0.0
Zr5AlNi4,0.0
Zr5AlSb3,0.0
Zr3Sc,0.0
Zr3Sb7Pd,0.0
Zr3Sb,0.0
Zr2TcOs,0.0
Zr2TcPd,0.0
Zr2TcRu,0.0
Zr2Te,0.0
Zr2Te2P,0.0
Zr2Te3,0.0
Zr2TiAl,0.0
Zr2TlC,0.0
Zr2V3Fe,0.0
Zr2V3Ge4,0.0
Zr2V3Ru,0.0
Zr2V3Si,0.0
Zr2VNi3,0.0
Zr3(V2Fe)2,0.0
Zr3(UGe2)2,0.0
Zr3(Ni10B3)2,0.0
Zr3(MnNi2)2,0.0
Zr3(MnGa3)2,0.0
Zr2TcNi,0.0
Zr3(Cu2Si3)2,0.0
Zr3(Cu2Si)2,0.0
Zr3(Cu2Ge)2,0.0
Zr3(Al2C3)2,0.0
Zr3(CuSi)4,0.0
Zr2SnC,0.0
Zr2Sn,0.0
Zr2Pd,0.0
Zr2PbC,0.0
Zr2P7Rh12,0.0
Zr2P,0.0
Zr2OsRu,0.0
Zr2Pt,0.0
Zr2NiS4,0.0
Zr2NiP2,0.0
Zr2NiP,0.0
Zr2Ni7,0.0
Zr3(VGa2)2,0.0
Zr2Re,0.0
Zr2Rh,0.0
Zr2SiNi3,0.0
Zr2SiMo3,0.0
Zr2Si4Ru3,0.0
Zr2ReRh,0.0
Zr2Si4Ni3,0.0
Zr2Se3,0.0
Zr2Sb3Pd,0.0
Zr2Sb,0.0
Zr2S,0.0
Zr2Si,0.0
Zr3(VNi2)2,0.0
Zr3NbC4,0.0
Zr3NbAl12,0.0
Zr3N2,0.0
Zr3Mn8Si,0.0
Zr3Mn8Al,0.0
Zr3NbZn8,0.0
Zr3HC2,0.0
Zr3GeAs5,0.0
Zr3Ge,0.0
Zr3In,0.0
Zr3Ga2,0.0
Zr3NiSb7,0.0
Zr3O,0.0
Zr3Rh5,0.0
Zr3Rh,0.0
Zr3Pt,0.0
Zr3P,0.0
Zr5Sb3O,0.0
Zr3Ga,0.0
Zr3As2,0.0
Zr3As,0.0
Zr3AlN4,0.0
Zr3AlN,0.0
Zr3AlFe8,0.0
Zr3Be,0.0
Zr3AlCo8,0.0
Zr3Al3C5,0.0
Zr3Al2,0.0
Zr3Al,0.0
Zr3AlAu2,0.0
Zr3Fe8Si,0.0
Zr3Bi5,0.0
Zr3Fe3C,0.0
Zr3Fe2Si3,0.0
Zr3Fe2Sb3,0.0
Zr3Fe(CuS4)2,0.0
Zr3Fe,0.0
Zr3Cu,0.0
Zr3Co8Si,0.0
Zr3Co2Si3,0.0
Zr3Co,0.0
Zr3Cd3AgF20,0.0
Zr3Cd,0.0
Zr3CoSe6,0.0
Zr5Sb3P,0.0
Zr5Sb3S,0.0
ZrAsRu,0.0
ZrAu,0.0
ZrAu2,0.0
ZrB2,0.0
ZrB2Mo3C2,0.0
ZrB4Ir3,0.0
ZrB4Mo,0.0
ZrBRh3,0.0
ZrBe13,0.0
ZrBe2,0.0
ZrBeB,0.0
ZrBeSi,0.0
ZrCdAu2,0.0
ZrCdAg2,0.0
ZrCd3,0.0
ZrCd,0.0
ZrC,0.0
ZrAsPd,0.0
ZrBiO4,0.0
ZrBi,0.0
ZrAs2,0.0
ZrAs,0.0
ZrAlCu2,0.0
ZrAlCu,0.0
ZrAlCr,0.0
ZrAlCo4,0.0
ZrAlCo2,0.0
ZrAlCo,0.0
ZrAlAu2,0.0
ZrAl6Mo,0.0
ZrAl5Ni2,0.0
ZrAl3,0.0
ZrCdCu2,0.0
ZrAlFe,0.0
ZrAlV,0.0
ZrAlRu2,0.0
ZrAlRh2,0.0
ZrAlRh,0.0
ZrAlPd,0.0
ZrAlOs,0.0
ZrAlMo,0.0
ZrAlPd2,0.0
ZrAl2Zn,0.0
ZrCdPd2,0.0
ZrCl,0.0
ZrCrGe2,0.0
ZrCrMo,0.0
ZrCrP,0.0
ZrCrS4,0.0
ZrCrSi,0.0
ZrCu,0.0
ZrCu2,0.0
ZrCu2Hg,0.0
ZrCu2Te3,0.0
ZrCuSi2,0.0
ZrCuSi,0.0
ZrCuHg2,0.0
ZrCuF6,0.0
ZrCu4Ag,0.0
ZrCu3,0.0
ZrCuGe2,0.0
ZrCrCuS4,0.0
ZrCo5Si3,0.0
ZrCo3B2,0.0
ZrCo3,0.0
ZrCoGe,0.0
ZrCo2Sn,0.0
ZrCo,0.0
ZrCl2,0.0
ZrCo2,0.0
ZrCoH3,0.0
ZrCoNi,0.0
ZrCrCu,0.0
ZrCr5P3,0.0
ZrCoN2,0.0
ZrCoSn,0.0
ZrCoSi,0.0
ZrCoP,0.0
ZrCoO3,0.0
ZrAl2,0.0
ZrAl,0.0
Zr6Al16Rh7,0.0
Zr6Al16Ru7,0.0
Zr6Al2Co,0.0
Zr6Al2CoH10,0.0
Zr6Al2Fe,0.0
Zr6Al2Ni,0.0
Zr6Al2NiH10,0.0
Zr6Al7Cu16,0.0
Zr6Al7Cu16H3,0.0
Zr6Al7Cu16H9,0.0
Zr6BCl14,0.0
Zr6Be15Cu8,0.0
Zr6Be15Ni8,0.0
Zr6Be15Pd8,0.0
Zr6FeBi2,0.0
Zr6Fe16Si7,0.0
Zr6Fe(SnH5)2,0.0
Zr6CuBi2,0.0
Zr6CoTe2,0.0
Zr6Al16Pt7,0.0
Zr6CoSn2,0.0
Zr6CoAs2,0.0
Zr6Co23,0.0
Zr6Co16Ge7,0.0
Zr6Co(SnH5)2,0.0
Zr6CoSb2,0.0
Zr6Al16Pd7,0.0
Zr6Al16Ir7,0.0
Zr5Sn3B,0.0
Zr5Sn3,0.0
Zr5Sn,0.0
Zr5SiSn3,0.0
Zr5SiSb3,0.0
Zr5Sn3C,0.0
Zr5SiPb3,0.0
Zr5Se8,0.0
Zr5Sc5Ga6,0.0
Zr5Sb4,0.0
Zr5Sb3Se,0.0
Zr5Si4,0.0
Zr5Sn3N,0.0
Zr63S128,0.0
Zr5ZnSb3,0.0
Zr5ZnPb3,0.0
Zr5V5Si6,0.0
Zr5TePb3,0.0
Zr5Te4,0.0
Zr5SnPb3,0.0
Zr5Sn4,0.0
Zr5Sn3S,0.0
Zr5Ti5Pb6,0.0
Zr6FeS2,0.0
Zr6FeSb2,0.0
Zr6FeSe2,0.0
Zr9(CoP2)2,0.0
Zr8Sc2O19,0.0
Zr8Ni21,0.0
Zr8Co3Cu,0.0
Zr8Bi13,0.0
Zr8As5,0.0
Zr7V5N2,0.0
Zr7Sb4,0.0
Zr7Pt10,0.0
Zr7Ni10,0.0
Zr9BMo4,0.0
Zr9CoMo4,0.0
ZrAg,0.0
Zr9W4S,0.0
Zr9V4S,0.0
Zr9ScO20,0.0
Zr9Re4P,0.0
Zr9Re4O3,0.0
Zr9Pt11,0.0
Zr9Pd11,0.0
Zr9NiMo4,0.0
Zr9Mo4S,0.0
Zr9FeMo4,0.0
Zr9Re4B,0.0
Zr5Sb3Ru,0.0
Zr7Cu10,0.0
Zr6Zn23Si,0.0
Zr6Ga2Ni,0.0
Zr6Ga2FeH10,0.0
Zr6Ga2Fe,0.0
Zr6Ga2CoH10,0.0
Zr6Ga2Co,0.0
Zr6Ga16Ru7,0.0
Zr6Ga16Pt7,0.0
Zr6Ga16Pd7,0.0
Zr6Ga16Os7,0.0
Zr6Ga16Ir7,0.0
Zr6FeTe2,0.0
Zr6Ga16Rh7,0.0
Zr7As4,0.0
Zr6Te2Ru,0.0
Zr6Te2Pt,0.0
Zr6Si7Ni16,0.0
Zr6PI14,0.0
Zr6Ni(SnH5)2,0.0
Zr6P2O,0.0
Zr6NiSb2,0.0
Zr6NiTe2,0.0
Zr2Ni12P7,0.0
Zr2Ni,0.0
Zn(CuO2)2,0.0
Zn(FeO2)2,0.0
Zn(FeS2)2,0.0
Zn(GaNi)3,0.0
Zn(MoO2)4,0.0
Zn(MoO2)2,0.0
Zn(InSe2)3,0.0
Zn(InS2)2,0.0
Zn(Bi3O5)4,0.0
Zn(Bi19O30)2,0.0
Zn(BIr)2,0.0
Zn(Co2O5)2,0.0
Zn,0.0
Zn(CoO2)2,0.0
Zn(Cu2O3)2,0.0
Zn(CrS2)4,0.0
Zn(CrS2)2,0.0
Zn(CoS2)4,0.0
Zn(CoS2)2,0.0
Zn(CoO2)4,0.0
Zn15B6Rh17,0.0
Zn22Ni3,0.0
Zn2AgAu,0.0
Zn2AgWO6,0.0
Zn2AsO5,0.0
Zn2BIr2,0.0
Zn2BO4,0.0
Zn2Bi6Ru8O27,0.0
Zn2Co3O8,0.0
Zn2CoIrO6,0.0
Zn2CuPt,0.0
Zn2CuNi,0.0
Zn2CuN2,0.0
Zn2CuIrO6,0.0
Zn2CuIr,0.0
Zn2CuAu,0.0
Zn13Rh,0.0
Zn2CrN3,0.0
Zn2CrIrO6,0.0
Zn2Cr3O8,0.0
Zn2CoS3,0.0
Zn2CoN2,0.0
Zn2Cu9O13,0.0
Zn13Fe,0.0
Zn13Co,0.0
Zn(W18O49)2,0.0
Zn(OF)2,0.0
Zn(NiS2)4,0.0
Zn10Co(B4Rh9)2,0.0
Zn(NiO2)4,0.0
Zn10Cr(B4Rh9)2,0.0
Zn10Fe(B4Rh9)2,0.0
Zn12Pt7,0.0
Zn11Rh2,0.0
Zn11Ni2,0.0
Zn11Ir2,0.0
Zn11Co2,0.0
Zn10Cu(B4Rh9)2,0.0
Zn10Sn(B4Rh9)2,0.0
Zn10Pd3,0.0
Zn10Ge(B4Rh9)2,0.0
Zn11(B4Rh9)2,0.0
YTcN3,0.0
YTe2,0.0
YTe3,0.0
YTh(B2Ru3)2,0.0
YTh(BRh)8,0.0
YTh4O10,0.0
YThC3,0.0
YThCo10,0.0
YThFe14B,0.0
YTl3,0.0
YTl,0.0
YTiSi,0.0
YTiO3,0.0
YTiGe,0.0
YTiFe11N,0.0
YTiFe11C,0.0
YTiCo11,0.0
YTi4(CuO4)3,0.0
YThRu2,0.0
YThRe4,0.0
YSnRh2,0.0
YSnRh,0.0
YSiRu2C,0.0
YSiRu,0.0
YSiRh,0.0
YSiPt2,0.0
YSiPt,0.0
YSn,0.0
YSiPd,0.0
YSiNi4,0.0
YSiNi,0.0
YSiIr2,0.0
YSiIr,0.0
YTlAg2,0.0
YSn(WO4)2,0.0
YSn3,0.0
YSnPt,0.0
YSn2,0.0
YSnGe,0.0
YSnAu2,0.0
YTlPd,0.0
YTm3,0.0
YTm3(SnPd2)4,0.0
YZnPd,0.0
YZnGe,0.0
YZnGa,0.0
YZn5,0.0
YZnPd2,0.0
YZn3,0.0
YZn2,0.0
YZn12,0.0
YWC2,0.0
YVO3,0.0
YVFe11H,0.0
YZnRh,0.0
YZnSi,0.0
YZrSb,0.0
YZrS2,0.0
YZrRu2,0.0
YZrFe4,0.0
YZr9O20,0.0
YZr4O10,0.0
YZr2Ni15,0.0
YZr2Co9,0.0
YZr,0.0
YZnSn2,0.0
YZnSn,0.0
YZr5O12,0.0
Zn2CuRh,0.0
YV4(CuO4)3,0.0
YU(CuSi)4,0.0
YU(CrSi)4,0.0
YTmTl2,0.0
YTmTe2,0.0
YTmRu2,0.0
YU2(BRh)12,0.0
YTmIr2,0.0
YTmHg2,0.0
YTmCu2,0.0
YTmCd2,0.0
YTmAl2,0.0
YTmMg2,0.0
YU2O6,0.0
YUAl4,0.0
YV2O4,0.0
YV2Fe10N,0.0
YV2(FeCo)5,0.0
YUTe6,0.0
YUSb2,0.0
YU2S3O2,0.0
YUS2,0.0
YUO4,0.0
YUGa4,0.0
YUPd6,0.0
Zn2Fe3Cu10(SnSe4)5,0.0
Zn2Fe3O8,0.0
Zr2Ag,0.0
Zr2Al,0.0
Zr2Al3,0.0
Zr2Al3C4,0.0
Zr2Al3Cr,0.0
Zr2Al3Ni,0.0
Zr2Al3Zn,0.0
Zr2AlCu2,0.0
Zr2AlFe3,0.0
Zr2AlN,0.0
Zr2Co3Mo,0.0
Zr2Co12P7,0.0
Zr2Co,0.0
Zr2Cd,0.0
Zr27O49,0.0
Zr2CS,0.0
Zr2BN,0.0
Zr2Au,0.0
Zr2As3Se,0.0
Zr24P8H,0.0
Zr23S32,0.0
Zr21S8,0.0
Zr11Os4,0.0
Zr10NiSnSb4,0.0
Zr10HN8,0.0
Zr10CrSb5,0.0
Zr10C9,0.0
Zr11Sb18,0.0
Zr10Al6O,0.0
Zr10(IrPt)3,0.0
Zr10(GaSb)3,0.0
Zr(Zn10Ni)2,0.0
Zr(Zn10Fe)2,0.0
Zr21Re25,0.0
Zr20Sn13,0.0
Zr2(V2Sb3)3,0.0
Zr2(TiSn)3,0.0
Zr2(TiSi)3,0.0
Zr14Cu51,0.0
Zr2(PO4)3,0.0
Zr2(NiP)3,0.0
Zr2(Ni7B2)3,0.0
Zr2(Co7B2)3,0.0
Zr18Co5Sn4,0.0
Zr2(PdRh)3,0.0
Zr2Co4P3,0.0
Zr2CoCuSn2,0.0
Zr2CoH5,0.0
Zr2In5Ni,0.0
Zr2HBr2,0.0
Zr2H2Pd,0.0
Zr2GaFe3,0.0
Zr2InAu2,0.0
Zr2Ga3Ni,0.0
Zr2Ga3Co,0.0
Zr2Ga3,0.0
Zr2FeTc,0.0
Zr2FeOs,0.0
Zr2NbMoC4,0.0
Zr2N2O,0.0
Zr2N,0.0
Zr2Mn4P3,0.0
Zr2InC,0.0
Zr2Mn12GaSn11,0.0
Zr2InPd2,0.0
Zr2InNi2,0.0
Zr2InN,0.0
Zr(Zn10Co)2,0.0
Zr2FeCo3,0.0
Zr2Fe3Si,0.0
Zr2CrFe3,0.0
Zr2CrCo3,0.0
Zr2Cr3Si,0.0
Zr2Cr3Fe,0.0
Zr2Cr30P19,0.0
Zr2CoS4,0.0
Zr2CoP,0.0
Zr2CoOs,0.0
Zr2CoNi,0.0
Zr2CoMo3,0.0
Zr2CoSi2,0.0
Zr2CrN3,0.0
Zr2Fe3Ge,0.0
Zr2Fe12P7,0.0
Zr2Fe,0.0
Zr2CuTc,0.0
Zr2CuSi4,0.0
Zr2CuRe,0.0
Zr2CuOs,0.0
Zr2CuH5,0.0
Zr(VGa2)2,0.0
Zr(US2)3,0.0
Zn3(GaS3)2,0.0
Zn3(InS3)2,0.0
Zn3(Ni10B3)2,0.0
Zn3(SnPt)2,0.0
Zn3(SnRu)2,0.0
Zn35Cu17,0.0
Zn36Ga5Ni8,0.0
Zn3As2,0.0
Zn3Au,0.0
Zn3Au5,0.0
Zn3BO5,0.0
Zn3CrSe4,0.0
Zn3CrS4,0.0
Zn3CrN3,0.0
Zn3Cr8FeS16,0.0
Zn3Cr12(GaSe12)2,0.0
Zn2SnSbO6,0.0
Zn3Cr,0.0
Zn3Co,0.0
Zn3CoS4,0.0
Zn2SnN2,0.0
Zn2MoWO6,0.0
Zn2MoN3,0.0
Zn2InI4,0.0
Zn2In2S5,0.0
Zn2Ni21B20,0.0
Zn2GaCuSe4,0.0
Zn2FeS3,0.0
Zn2FeN2,0.0
Zn2FeIrO6,0.0
Zn2Ga2S5,0.0
Zn3CrTe4,0.0
Zn2NiIr,0.0
Zn2SbMoO6,0.0
Zn2RhAu,0.0
Zn2PtRh,0.0
Zn2Ni9O13,0.0
Zn2PdAu,0.0
Zn2NiRh,0.0
Zn2NiN2,0.0
Zn2NiIrO6,0.0
Zn3Cu10(TeO6)6,0.0
Zr(Fe2Si)2,0.0
Zr(CoSi)2,0.0
Zr(CoGe)6,0.0
Zr(AlFe)6,0.0
Zr(FeGe)6,0.0
Zr(AlC)4,0.0
Zr,0.0
ZnWF6,0.0
Zr(Al2Fe)4,0.0
ZnTe2,0.0
Zr(FeSi)2,0.0
Zr(U5Ti2)2,0.0
Zr(TiH2)2,0.0
Zr(SiNi)2,0.0
Zr(PO4)2,0.0
Zr(FeSn)6,0.0
Zr(NiP)2,0.0
Zr(Ni2As)2,0.0
Zr(MnSn)6,0.0
Zr(MnN)4,0.0
Zr(MnGe)6,0.0
Zr(MnAl)6,0.0
Zr(Ni2P)2,0.0
Zn3Si,0.0
Zn3Ge,0.0
Zn3Ga4Pd7,0.0
Zn3FeS4,0.0
Zn3FeN3,0.0
Zn3In,0.0
Zn3Fe4(BiO4)6,0.0
Zn3Fe2Cu10(SnSe4)5,0.0
Zn3Fe15Cu39(Ge3S32)2,0.0
Zn3Fe12(CoO12)2,0.0
Zn3CuP2O9,0.0
Zn3Cu2H14(SO9)2,0.0
Zn3Ir,0.0
Zn3Ru,0.0
Zn3Os,0.0
Zn3Ni2Ge,0.0
Zn3Ni,0.0
Zn3P2,0.0
YCo2(B2Rh)2,0.0
V2Fe(PO4)3,0.0
V2Fe2Pb(O4F)2,0.0
V2Fe3(SiO4)3,0.0
V2Fe3Ni(PO4)6,0.0
V2Fe3P6WO24,0.0
V2Fe3Te(PO4)6,0.0
V2FeGe,0.0
V2FeS4,0.0
V2FeSi,0.0
V2Hg(P2O7)2,0.0
V2HO4,0.0
V2H,0.0
V2GeC,0.0
V2GaSn2,0.0
V2GaC,0.0
V2Ga5,0.0
V2GaFe,0.0
V2Cu3Sb4,0.0
V2Cu3Pb(ClO4)2,0.0
V2Cr2Fe,0.0
V2Cr(PO4)3,0.0
V2CoSe4,0.0
V2CoS4,0.0
V2CoO4,0.0
V2CrFe,0.0
V2Co9W,0.0
V2Co(PO4)3,0.0
V2Co(H4O5)2,0.0
V2CdO4,0.0
V2Co9Mo,0.0
V2InC,0.0
V2CrFe3(PO4)6,0.0
V2Cu3NiO6,0.0
V2Cu2O7,0.0
V2CrO6,0.0
V2Cu(PO5)2,0.0
V2CrTc,0.0
V2CrSe4,0.0
V2CrRe,0.0
V2MoOs,0.0
V2MoS4,0.0
V2Si2O7,0.0
V2SiO4,0.0
V2Sn(PO4)3,0.0
V2TcOs,0.0
V2TcRu,0.0
V2Te2O7F2,0.0
V2WO6,0.0
V2Zn3O7,0.0
V2ZnCuO7,0.0
V2ZnO4,0.0
V3(O2F)2,0.0
V3(Ni10B3)2,0.0
V3(Co10B3)2,0.0
V3(AsO4)4,0.0
V2ZnS4,0.0
V2Sb(PO4)3,0.0
V2ReTc,0.0
V2O2F3,0.0
V2NiSe4,0.0
V2NiSb2,0.0
V2NiS4,0.0
V2Ni3Te3O16,0.0
V2Ni3O8,0.0
V2Ni(PO4)3,0.0
V2N3,0.0
V2N,0.0
V2MoW,0.0
V2NiN2,0.0
V2ReOs,0.0
V2ReMo,0.0
V2PO5,0.0
V2PC,0.0
V2P2O7,0.0
V2OsW,0.0
V2OsRu,0.0
V2C,0.0
USnPd,0.0
USnPt2,0.0
USnRh2,0.0
USnTe,0.0
UTaC2,0.0
UTaN2,0.0
UTc2Sn,0.0
UTc3,0.0
UTe,0.0
UTeO,0.0
UTeN,0.0
USnIr,0.0
UTeAs,0.0
UTe5,0.0
UTe3,0.0
USnAu2,0.0
USnAu,0.0
USn3,0.0
USi2,0.0
USeS,0.0
USeO,0.0
USi2RuRh,0.0
USe3,0.0
USe,0.0
USbTe,0.0
USbSe,0.0
USi3,0.0
USn2,0.0
USn,0.0
USiSe,0.0
USiRu,0.0
USiRh,0.0
USiOs2C,0.0
USiNi,0.0
USiAu,0.0
USiPd,0.0
V17Ge31,0.0
V16(CuO8)5,0.0
V14Fe5O32,0.0
V12P7,0.0
V12Ga2GeS24,0.0
V12Ga(GeS12)2,0.0
V18P9C2,0.0
V12Fe6O35,0.0
V11ReB8,0.0
V11Ge8,0.0
V11FeB8,0.0
V10Si6B,0.0
V10(SiGe)3,0.0
V11Sb9O40,0.0
V(ZnN)4,0.0
V2(Co7B2)3,0.0
V2Bi4O11,0.0
V2B3,0.0
V2B2Ir,0.0
V2B(PO4)3,0.0
V2AsC,0.0
V23Se40,0.0
V20Ga2Ge3S40,0.0
V2(PO4)3,0.0
V2(OF)3,0.0
V2(CuO2)5,0.0
V2(CrSi)3,0.0
V20As11,0.0
V(PO3)4,0.0
V(AgO)4,0.0
V,0.0
UZnNi4,0.0
UWC2,0.0
UW3O11,0.0
UVSe3,0.0
UVC2,0.0
UVB4,0.0
UV5P3,0.0
UV3O10,0.0
UV2O6,0.0
UTi2O6,0.0
UVN2,0.0
V(CoSe2)2,0.0
V(CrC)2,0.0
V(PO3)3,0.0
V(MoS2)2,0.0
V(Mo3Se4)2,0.0
V(FeSe2)2,0.0
V(Cr7S10)2,0.0
V(CrTe2)2,0.0
V(CrSi3)2,0.0
V(CrS2)2,0.0
V(FeS2)2,0.0
V3(P2O7)2,0.0
V3(PbO3)4,0.0
V5Co(PO4)6,0.0
V5Cr(PO4)6,0.0
V5Fe5Si6,0.0
V5Ga3,0.0
V5Ge3,0.0
V5P3,0.0
V5P3N,0.0
V5P6WO24,0.0
V5S4,0.0
V5S8,0.0
V5Sb(PO4)6,0.0
V6AgO15,0.0
V5Te8,0.0
V5Te4,0.0
V5Te(PO4)6,0.0
V5SiB2,0.0
V5Si6W5,0.0
V5Se8,0.0
V5Se4,0.0
V5Si3B,0.0
V5B3,0.0
V4O7F5,0.0
V4NiSb4,0.0
V4Ni2N,0.0
V4NO11,0.0
V4N3,0.0
V4HC3,0.0
V4GeSe8,0.0
V4GeS8,0.0
V4GaSe8,0.0
V4Os,0.0
V4P3,0.0
V4ZnS8,0.0
V4ZnO6,0.0
V4P2C,0.0
V4ZnO10,0.0
V4SiSb2,0.0
V4Ru,0.0
V4P9O32,0.0
V4Zn5,0.0
V6C5,0.0
V7S8,0.0
V8C7,0.0
V8GaGeS16,0.0
V8N,0.0
V8Ni2O15,0.0
V9Cr3B8,0.0
V9Ga2Sn,0.0
V9Ga4Fe3,0.0
V9GaSiGe,0.0
V9NiO15,0.0
V9O22,0.0
VB2Ru,0.0
VB2,0.0
VAuS2,0.0
VAu4,0.0
VAu3,0.0
VAs2O7,0.0
VAs2,0.0
VAs,0.0
VAg3F6,0.0
VAsRh,0.0
V6SiSn,0.0
V6SiGe,0.0
V6H4O13,0.0
V6GeOs,0.0
V6GaSn,0.0
V6GaSi,0.0
V6GaSb,0.0
V6InS8,0.0
V6GaGe,0.0
V6FeNi,0.0
V6Cu2O15,0.0
V6Cu11O26,0.0
V6CoRh,0.0
V6CoIr,0.0
V6O11F,0.0
V6O13,0.0
V6Si7Ni16,0.0
V6Si5,0.0
V6O7F5,0.0
V6O5F19,0.0
V4FeO12,0.0
V4FeCoO12,0.0
V3Cu2Ni(PO4)6,0.0
V3Cu2Sb(PO4)6,0.0
V3CuO8,0.0
V3F10,0.0
V3Fe,0.0
V3Fe2Co(PO4)6,0.0
V3Fe2Cu(PO4)6,0.0
V3Fe2Ni(PO4)6,0.0
V3Fe2Sb(PO4)6,0.0
V3Fe3C,0.0
V3FeCo2(PO4)6,0.0
V3FeNi2(PO4)6,0.0
V3H8C2NO7,0.0
V3H5O8,0.0
V3GeN,0.0
V3Ge,0.0
V3Cu(PO4)4,0.0
V3GaN,0.0
V3Ga2,0.0
V3Ga,0.0
V3FeSn2(PO4)6,0.0
V3FeS6,0.0
V3Ga2N,0.0
V3Cu,0.0
V3CrSn2(PO4)6,0.0
V3Co,0.0
V3Cd5O12,0.0
V3C2,0.0
V3B4,0.0
V3B100,0.0
V3As2,0.0
V3As,0.0
V3Ag2TeS6,0.0
V32N3,0.0
V3Co3(TeO8)2,0.0
V3CrSb2(PO4)6,0.0
V3CrO10,0.0
V3CrN3,0.0
V3CrGaSe8,0.0
V3Cr3Si2,0.0
V3Co5O16,0.0
V3Cr2Ni(PO4)6,0.0
V3Cr2Fe(PO4)6,0.0
V3Cr,0.0
V3CoSn2(PO4)6,0.0
V3CoSb2(PO4)6,0.0
V3N4,0.0
V3Ni,0.0
V3Ni(PO4)6,0.0
V3Sn,0.0
V3SiNi2,0.0
V3Si,0.0
V3Zn2N,0.0
V3Sb2,0.0
V3Sb,0.0
V3S5,0.0
V3S4,0.0
V3S,0.0
V3Zn2O8,0.0
V4(CrS2)5,0.0
V4Cu9(ClO9)2,0.0
V4Cu3S8,0.0
V4Cu3O10,0.0
V4Cu13(O13F2)2,0.0
V4CoCuO12,0.0
V4(AgO4)3,0.0
V4Co2N,0.0
V4AgO10,0.0
V4(PO4)3,0.0
V4(CuO4)3,0.0
V3(PS3)4,0.0
V3Ru,0.0
V3Rh,0.0
V3O5,0.0
V3NiS6,0.0
V3NiO6,0.0
V3Ni2,0.0
V3Rh5,0.0
V3O7,0.0
V3Pt,0.0
V3Pd,0.0
V3Pb5O12,0.0
V3O5F3,0.0
V3P4H8N2O17,0.0
V3P3O13,0.0
V3P,0.0
V3Os,0.0
V3O8,0.0
USbPd,0.0
U4Si3Mo,0.0
U4Te3O4,0.0
U5B4Rh15,0.0
U5CrSb3,0.0
U5Ge4,0.0
U5PS4,0.0
U5Re3C8,0.0
U6Co30Si19,0.0
U6Al43W4,0.0
U6Al43V4,0.0
U6Al43Cr4,0.0
U6Al39Mo8,0.0
U5Sn4,0.0
U5SiS4,0.0
U5Sb4,0.0
U6Al43Mo4,0.0
U4O7,0.0
U4N7,0.0
U4Ge6Os7,0.0
U3Te5,0.0
U3Sn4Au3,0.0
U3Sn13Rh4,0.0
U3SiPt5,0.0
U3Si2,0.0
U3TaSb5,0.0
U4Al18Ni5,0.0
U4Ga20Pt11,0.0
U4Ga20Pd11,0.0
U4Ga20Ni11,0.0
U4Ga12Pd,0.0
U4(TeSe)3,0.0
U4Ga12Ni,0.0
U4Ga12Co,0.0
U4CuTe12,0.0
U4Be51B,0.0
U4Be2C5,0.0
U4B3C5,0.0
U4As6Ru7,0.0
U4Ga12Fe,0.0
U6Fe16Si7,0.0
UAl3,0.0
UAl3Fe7Si2,0.0
UAl3Ni2,0.0
UAl4Co,0.0
UAl5Cu6,0.0
UAl7Fe3Cu2,0.0
UAlAu,0.0
UAlAu2,0.0
UAlFe,0.0
UAs2Pd,0.0
UAs2,0.0
UAl2Pd5,0.0
UAlO3,0.0
UAlNi4,0.0
UAlNi,0.0
UAlPt,0.0
UAl2Cu3,0.0
U7Cd3O20,0.0
U7(Pd3S4)8,0.0
U6Si19Pt30,0.0
U6P13Rh20,0.0
U7Mo,0.0
U6Nb4Al43,0.0
U6Mn,0.0
U6Fe30P19,0.0
U6O11,0.0
U6Fe,0.0
U7Se12,0.0
U8Bi2O19,0.0
U8VSe17,0.0
U8VS17,0.0
U8TiSe17,0.0
U8TiS17,0.0
U8NiSe17,0.0
U7Te12,0.0
U8MnSe17,0.0
U8FeS17,0.0
U8CrSe17,0.0
U8CrS17,0.0
U8CoSe17,0.0
U8MnS17,0.0
U3Se5,0.0
U2Si4Mo3,0.0
U2Si5Ru2Rh,0.0
U2Si5Ru3,0.0
U2Si7Ni2,0.0
U2Si7Ru12,0.0
U2SnIr2,0.0
U2SnPd2,0.0
U2SnPt2,0.0
U2Ta3Ge4,0.0
U2TlSe6,0.0
U2Ti3Si4,0.0
U2Ti,0.0
U2Si3Ru,0.0
U2TeSe,0.0
U2TeN2,0.0
U2Te2PO,0.0
U2Tc,0.0
U2Ta6O19,0.0
U2Si3Rh,0.0
U2Re3Si5,0.0
U2PtC2,0.0
U2PdS4,0.0
U2PbSe5,0.0
U2ReB6,0.0
U2PS,0.0
U2PN2,0.0
U2P2O9,0.0
U2W2C3,0.0
U2RhC2,0.0
U2S3,0.0
U2Si3Pd,0.0
U2Si3Os,0.0
U2Si3Ni,0.0
U2Si3Ir,0.0
U2SeS,0.0
U2SeN2,0.0
U2SbTe,0.0
U2SbN2,0.0
U2Sb4Pd,0.0
U2SN2,0.0
U2S5,0.0
U3O10,0.0
U3Ni3Sn4,0.0
U3Ni3Sb4,0.0
U3Ni3(SnSb)2,0.0
U3NbSb5,0.0
U3MnSb5,0.0
U3Ga5,0.0
U3Ga2Si3,0.0
U3Ga2Ge3,0.0
U3Fe2Ge7,0.0
U3O7,0.0
U3O8,0.0
U3Se4,0.0
U3Sb4Rh3,0.0
U3Sb4Pd3,0.0
U3Sb4Ir3,0.0
U3Sb4,0.0
U3S5,0.0
U3P4,0.0
U3P2S,0.0
UAsP,0.0
U3(SiC)2,0.0
U3(Ga2Cu)4,0.0
U3(CuGe)4,0.0
U3(CoNi2)2,0.0
U3(Al3Ru)4,0.0
U3Cu2Sb3,0.0
U3Cu2S7,0.0
U3Cu,0.0
U3CrSb5,0.0
U3Co7B2,0.0
U3Co2Si7,0.0
U3Co2Ge7,0.0
U3Bi4Rh3,0.0
U3Bi4,0.0
U3As4,0.0
U3As2Se,0.0
USbPd2,0.0
UAsS,0.0
UMn3,0.0
UMn5Al7,0.0
UMn5P3,0.0
UMnB4,0.0
UMnCo,0.0
UMnFe,0.0
UMnFeSi2,0.0
UMo5O16,0.0
UMoC2,0.0
UN,0.0
UNi4Sn,0.0
UNi3P2,0.0
UNi2Sn,0.0
UNi2,0.0
UNbO5,0.0
UNbC2,0.0
UNb6O16,0.0
UNb4O12,0.0
UNb3O10,0.0
UNb2O7,0.0
UNCl,0.0
UNbN2,0.0
UMn2,0.0
UHg3,0.0
UHg2,0.0
UH3,0.0
UH2Se2O9,0.0
UGeTe,0.0
UGeSe,0.0
UGeRh,0.0
UGePt,0.0
UGePd,0.0
UGeS,0.0
UNi5Ge3,0.0
UI3,0.0
UIrPt4,0.0
UIr3,0.0
UIr2,0.0
UIr,0.0
UInRh,0.0
UI4,0.0
UInPd,0.0
UInNi4,0.0
UInNi2,0.0
UIn3,0.0
UInPt,0.0
UGeAu,0.0
UNiAs,0.0
UNiB4,0.0
UPt4Au,0.0
UPt5,0.0
URe2,0.0
UReB4,0.0
UReC2,0.0
URh3,0.0
URhS3,0.0
URu2Rh,0.0
URu3,0.0
URuC2,0.0
US,0.0
US2,0.0
USbO5,0.0
USb3,0.0
USb2Ru,0.0
USb2Pd,0.0
USb2Au,0.0
UPt3,0.0
USb2,0.0
USO,0.0
US3,0.0
UPt2Au3,0.0
UPt,0.0
UP,0.0
UO2,0.0
UNiSn,0.0
UNiSb2,0.0
UNiS3,0.0
UNiC2,0.0
UNiSe3,0.0
UP2O7,0.0
UP2S7,0.0
UPdSe3,0.0
UPdPt4,0.0
UPd3,0.0
UPd2Pb,0.0
UPbI6,0.0
UPb3,0.0
UPS,0.0
UPO5,0.0
UPBrO6,0.0
UP3,0.0
UPSe,0.0
UGe3,0.0
UGe2Rh,0.0
UCo2Sn,0.0
UCo3B2,0.0
UCo4Sn,0.0
UCo5,0.0
UCo5Sn,0.0
UCoAs2,0.0
UCoB4,0.0
UCoC2,0.0
UCoCuGe2,0.0
UCoCuSi2,0.0
UCoGe,0.0
UCoNi,0.0
UCrCuSi2,0.0
UCrCo,0.0
UCrC2,0.0
UCrB4,0.0
UCr5P3,0.0
UCo2,0.0
UCoSn,0.0
UCoSe3,0.0
UCoS3,0.0
UCl3,0.0
UB4W,0.0
UB4Ru,0.0
UB4Os,0.0
UB4Mo,0.0
UB4,0.0
UB2Os3,0.0
UB2Ir3,0.0
UB2C,0.0
UB2Rh2C,0.0
UCrNi,0.0
UBC,0.0
UBRh3,0.0
UCl2O,0.0
UC2,0.0
UBrO5,0.0
UBrO2,0.0
UBr4,0.0
UBiTe,0.0
UBiSb,0.0
UBi2,0.0
UBi,0.0
UBe13,0.0
UBr3,0.0
UCu2(PO5)2,0.0
UGa5Fe,0.0
UGa5Co,0.0
UGa3Pd2,0.0
UGa3Ni,0.0
UGa2,0.0
UFeSi,0.0
UFeS3,0.0
UFeGe,0.0
UGa5Pt,0.0
UGa5Ru,0.0
UGe2,0.0
UGaTc2,0.0
UGaRu,0.0
UGaRh,0.0
UGa5Rh,0.0
UGaPd2,0.0
UGaCu,0.0
UGaCo,0.0
UGaAu,0.0
UAsSe,0.0
UFeC2,0.0
UFeAs2,0.0
UCuP2,0.0
UCuO4,0.0
UCuBi2,0.0
UCuAs2,0.0
UCu4Au,0.0
UCu4(SeO7)2,0.0
UCu4(MoO8)2,0.0
UCu3Pd2,0.0
UCu2(SiNi4)2,0.0
UCu5,0.0
UCuSb2,0.0
UFe5Si3,0.0
UFe5Si2Ni5,0.0
UFe5Co5Si2,0.0
UFe4B,0.0
UF4,0.0
UF3,0.0
UCuSn,0.0
UCuSi2Ni,0.0
VBi2,0.0
VBr3,0.0
VC,0.0
Y3Cd,0.0
Y3Co13B2,0.0
Y3Fe29,0.0
Y3Fe2Si3,0.0
Y3FeB7,0.0
Y3Ga,0.0
Y3Ga2,0.0
Y3Ga7Cu4,0.0
Y3Ge4,0.0
Y3Ge13Ru4,0.0
Y3Ge13Rh4,0.0
Y3Ge13Os4,0.0
Y3CBr3,0.0
Y3Ge13Ir4,0.0
Y3GaC,0.0
Y3Ga9Pt2,0.0
Y3Ga8Rh3,0.0
Y3Ga8Ni3,0.0
Y3Ga8Ag3,0.0
Y3GaCo3,0.0
Y3Bi,0.0
Y3Al,0.0
Y3(ZnAu2)2,0.0
Y3(SiNi3)2,0.0
Y3(Si3Ru)4,0.0
Y3Al19Ni5,0.0
Y3(Si3Os)4,0.0
Y3(GeRh)2,0.0
Y3(GaNi3)2,0.0
Y3(FeRu2)2,0.0
Y3(SbPd2)4,0.0
Y3Ge5,0.0
Y3Al2,0.0
Y3Al3NiGe2,0.0
Y3BeCrS7,0.0
Y3BCl3,0.0
Y3BBr3,0.0
Y3Au2,0.0
Y3AlC3,0.0
Y3Al7Cu2,0.0
Y3Al6Si6B3H3O31,0.0
Y3(CuSn)4,0.0
Y3NiGe2,0.0
Y3Os,0.0
Y3Pb,0.0
Y3PbC,0.0
Y3Pd2,0.0
Y3Pd4,0.0
Y3Pt,0.0
Y3Pu,0.0
Y3ReB7,0.0
Y3Rh,0.0
Y3Rh2,0.0
Y3Ru,0.0
Y3Ru2,0.0
Y3RuI3,0.0
Y3Tl,0.0
Y3Th3Mn23,0.0
Y3Th,0.0
Y3SnC,0.0
Y3Sn,0.0
Y3Si3Rh,0.0
Y3Si3Pd2,0.0
Y3Si3O11,0.0
Y3Si3Ni,0.0
Y3Se4,0.0
Y3SiS2,0.0
Y3Ni19B10,0.0
Y3Mg,0.0
Y3Ir,0.0
Y3In5,0.0
Y3HoC8,0.0
Y3Ho,0.0
Y3H2,0.0
Y3InC,0.0
Y3GeS2,0.0
Y3Ni,0.0
Y3MnB7,0.0
Y3MnAu5,0.0
Y3Mn2Sb3O14,0.0
Y3Mg2VS8,0.0
Y3Mg2TiS8,0.0
Y3Mg2Si3O13,0.0
Y3Mg2MnS8,0.0
Y3Mg2(GeO4)3,0.0
Y3(CuGe)4,0.0
Y2Mg3Zn4,0.0
Y2MgHg,0.0
Y2MgNi2,0.0
Y2MgRu,0.0
Y2MgTi2S2O5,0.0
Y2MgTl,0.0
Y2Ni17,0.0
Y2Ni12P7,0.0
Y2Nb3Ge4,0.0
Y2MnNiO6,0.0
Y2MnC4,0.0
Y2Mn5Co12,0.0
Y2Mn3Si5,0.0
Y2Mn3N4,0.0
Y2Mn3Fe,0.0
Y2Mn3Co,0.0
Y2MnCoO6,0.0
Y2In,0.0
Y2H2C,0.0
Y2Ge6Pt,0.0
Y2Ge6Pd,0.0
Y2Ge5Ru3,0.0
Y2In3Cu,0.0
Y2Ge5Rh3,0.0
Y2Ge2Ru,0.0
Y2GaCo2,0.0
Y2GaAg,0.0
Y2Ga3Ni,0.0
Y2Ge5Ir3,0.0
Y2In8Co,0.0
Y2InCu2,0.0
Y2IrRu,0.0
Y2InAu2,0.0
Y2IrRh,0.0
Y2IrAu,0.0
Y2Ir2O7,0.0
Y2InPd2,0.0
Y2InNi2,0.0
Y2InGe2,0.0
Y2Ni3N4,0.0
Y2Ni7,0.0
Y2VFeO6,0.0
Y2V2O7,0.0
Y2USe3,0.0
Y2US3O2,0.0
Y2U3S5O3,0.0
Y2TlZn,0.0
Y2TlCd,0.0
Y2TlAg,0.0
Y2TiCuO6,0.0
Y2Ti2Fe22N,0.0
Y2SnAu2,0.0
Y2TlIn,0.0
Y2Sn5Rh3,0.0
Y2ZnCu,0.0
Y3(AlNi3)2,0.0
Y3(AlFe2)2,0.0
Y3(Al3Os)4,0.0
Y2ZnAu,0.0
Y2ZnRh,0.0
Y2ZnIn,0.0
Y2ZnHg,0.0
Y2ZnGa,0.0
Y2ZnRu,0.0
Y3Tl5,0.0
Y2PdRh,0.0
Y2P7Rh12,0.0
Y2OsC2,0.0
Y2PdRu,0.0
Y2NiRu3,0.0
Y2NiGe6,0.0
Y2NiB10,0.0
Y2Ni7Sn3,0.0
Y2Si5Ni3,0.0
Y2Pt,0.0
Y2Si4Mo3,0.0
Y2Si3Rh,0.0
Y2Sc2TiCo10,0.0
Y2Pt2Se7,0.0
Y2Sb2O7,0.0
Y2RuPt,0.0
Y2RuAu,0.0
Y2ReC2,0.0
Y2ReB6,0.0
Y2RuRh,0.0
Y2Ga3Fe14,0.0
Y3TlC,0.0
YAg3,0.0
YAgPb,0.0
YAgSb2,0.0
YAgSe2,0.0
YAgSn,0.0
YAgSn2,0.0
YAl,0.0
YAl2Co,0.0
YAl2Ni,0.0
YAl2Pd5,0.0
YAlFe,0.0
YAlCu,0.0
YAlCo4,0.0
YAlCo,0.0
YAlAg2,0.0
YAl7Cu5,0.0
YAl6Si18(N15O)2,0.0
YAl4Ni,0.0
YAl3Ni2,0.0
YAl3Ni,0.0
YAl7Fe5,0.0
YAg2,0.0
YAg,0.0
Y7C3I6O,0.0
Y7(TeAu)2,0.0
Y6Zn23,0.0
Y6Ti4Al43,0.0
Y6Te2Rh,0.0
Y6Te2Pd,0.0
Y7Co6Sn23,0.0
Y6Si7Ni16,0.0
Y6OsI10,0.0
Y6N2O5,0.0
Y6MnBi2,0.0
Y6Mn23,0.0
Y6Mn14Fe9,0.0
Y6RuI10,0.0
Y7Cu3(GeSe7)3,0.0
Y7FeI12,0.0
Y9C4I8O,0.0
Y9(Si5Os)4,0.0
Y8Cu3(SnS7)3,0.0
Y8Cu3(SiSe7)3,0.0
Y7Cu3(SiSe7)3,0.0
Y8Cu3(SiS7)3,0.0
Y8Cu3(GeS7)3,0.0
Y7Te2,0.0
Y7Rh3,0.0
Y7Pt3,0.0
Y7Mg3Ge8,0.0
Y8Cu3(GeSe7)3,0.0
Y6Mn11S20,0.0
YBPt3,0.0
YBRh3,0.0
YBe13,0.0
YBeCu4,0.0
YBi,0.0
YBi3,0.0
YBi3(Ru2O7)2,0.0
YBiPd,0.0
YBiPd2,0.0
YBiPt,0.0
YBr2,0.0
YC2,0.0
YCBr,0.0
YCCl,0.0
YCI,0.0
YCl,0.0
YCdPt2,0.0
YCdPd2,0.0
YBPt2,0.0
YCdAu2,0.0
YCdAg2,0.0
YCd3,0.0
YCd2,0.0
YCd,0.0
YCO4,0.0
YBPd3,0.0
YBC,0.0
YB7Mo3,0.0
YB12,0.0
YAu3,0.0
YAs,0.0
YAlSi,0.0
YAlPd2,0.0
YAlZn,0.0
YB2C,0.0
YB2Mo,0.0
YB4W3,0.0
YB4Rh7,0.0
YB4Os,0.0
YB2Ru,0.0
YB2Pd7,0.0
YB2Pd2C,0.0
YB2Os,0.0
Y6InCo2,0.0
Y6Ga17Pt5,0.0
Y4In20Ni11,0.0
Y4InIr,0.0