formula,band_gap
Y4Mg(AgO3)4,0.0
Y4Mg25,0.0
Y4MgCo,0.0
Y4MgRh,0.0
Y4Ni13C4,0.0
Y4NiSn8,0.0
Y4ScSi10,0.0
Y4Si5Rh9,0.0
Y4SiS3,0.0
Y4UPd15,0.0
Y5(In2Pd)2,0.0
Y5(GeSb)2,0.0
Y5(Ge5Rh2)2,0.0
Y5(FeTe)2,0.0
Y4GeS3,0.0
Y4ZrNi25,0.0
Y4ZrMn5O15,0.0
Y4US7,0.0
Y4GeO10,0.0
Y4GaCo4,0.0
Y4CI5,0.0
Y4C7,0.0
Y4C4I3Br,0.0
Y4Be6Fe3(SiO5)6,0.0
Y4BBr6,0.0
Y4CdIr,0.0
Y4AsSe3,0.0
Y4AlGe8,0.0
Y4Al23Ni6,0.0
Y40Si13S27,0.0
Y4(FeB2)3,0.0
Y3Zn11,0.0
Y4AlSi2(O2F)5,0.0
Y5(MoO6)2,0.0
Y4CdPd,0.0
Y4CdRu,0.0
Y4Ga21Ni10,0.0
Y4Ga16Co3,0.0
Y4Ga12Pt,0.0
Y4Ga12Pd,0.0
Y4Ga12Fe,0.0
Y4CdPt,0.0
Y4Fe28BC,0.0
Y4CuTe8,0.0
Y4CoB13,0.0
Y4Co3,0.0
Y5(ReO6)2,0.0
Y5Si4,0.0
Y5Si3H,0.0
Y5Si3C,0.0
Y5Si3,0.0
Y5Sc5Si6,0.0
Y5Sn3,0.0
Y5SbPt2,0.0
Y5Sb3,0.0
Y5Pt4,0.0
Y5SbPd2,0.0
Y5Zr3(Ni4As3)4,0.0
Y6Ga17Pd5,0.0
Y6FeSb2,0.0
Y6FeBi2,0.0
Y6Fe23,0.0
Y6Cu11O24,0.0
Y6Cr(SiS7)2,0.0
Y6Co2Sn,0.0
Y6C2I7,0.0
Y6Al43W4,0.0
Y6Al43Cr4,0.0
Y6AgTe2,0.0
Y6Ag(GeS7)2,0.0
Y6CoBi2,0.0
Y3Tm,0.0
Y5Ni2Sb,0.0
Y5CuPb3,0.0
Y5BiPt2,0.0
Y5BiPd2,0.0
Y5Bi3,0.0
Y5Al3C4,0.0
Y5Al3,0.0
Y5(SiSb)2,0.0
Y5(SiB4)2,0.0
Y5(Si7Os2)2,0.0
Y5(Si5Ir2)2,0.0
Y5P12Ru19,0.0
Y5Ni2Bi,0.0
Y5Mn3(NiO6)3,0.0
Y5Mg5Al12(Fe2Si3)2,0.0
Y5Mg16Cu5,0.0
Y5Ge3,0.0
Y5Mg13Cu5,0.0
Y5Ir2,0.0
Y5Ge4,0.0
Y2Ga3Cu,0.0
Y2Ga3Ag,0.0
VPd3,0.0
VPd4,0.0
VPt8,0.0
VRe,0.0
VRe11B4,0.0
VReMo,0.0
VReO4,0.0
VS,0.0
VRh3,0.0
VPd2,0.0
VO2,0.0
VNiSb,0.0
VNiP,0.0
VNiAs,0.0
VNi3,0.0
VNi2Sn,0.0
VNiGe,0.0
VPbO4,0.0
VP4,0.0
VP2O7,0.0
VP2H8(NO4)2,0.0
VP,0.0
VOF,0.0
VP2,0.0
VTe2,0.0
VW,0.0
VW3,0.0
VZn(GeO3)2,0.0
VZn3,0.0
VZnCo2,0.0
VZnF6,0.0
VZnN2,0.0
VZnO2,0.0
VZnPbO5,0.0
VZnRh2,0.0
VZnRu2,0.0
VZnSF5,0.0
W,0.0
W3Br8,0.0
W3Br7,0.0
W2N3,0.0
W2C,0.0
W25O73,0.0
W18O49,0.0
W17O47,0.0
W10O29,0.0
VTc2Ge,0.0
VTc,0.0
VSi2,0.0
VSe,0.0
VSbRh,0.0
VSbO4,0.0
VSb2O5,0.0
VSb,0.0
VSnRu2,0.0
VSnPO5,0.0
VSn2,0.0
VSiPt,0.0
VSiNi,0.0
VSiTc2,0.0
VNi(PO4)2,0.0
VN,0.0
VCr3,0.0
VCr3As4,0.0
VCrAs2,0.0
VCrB2,0.0
VCrB4,0.0
VCrC2,0.0
VCrCo,0.0
VCrFe2,0.0
VCrMo,0.0
VCrN2,0.0
VCrP2,0.0
VCrSbO6,0.0
VCuO3,0.0
VCuO2,0.0
VCu3(PO4)4,0.0
VCr2O6,0.0
VCu2BiO6,0.0
VCu13As3S16,0.0
VCu12Sn(AsS8)2,0.0
VCu(PS3)2,0.0
VCrSe2,0.0
VCr2O4,0.0
VCo3,0.0
VCo2Sn,0.0
VCo2Si,0.0
VCo2P2NO12,0.0
VCo2Ni,0.0
VCo(PO4)2,0.0
VCo,0.0
VCl4,0.0
VCl3,0.0
VCdO3,0.0
VCuSe2O7,0.0
VCo3(PO4)4,0.0
VCo3O8,0.0
VCr2Fe3(PO4)6,0.0
VCr(PO4)2,0.0
VCr,0.0
VCo3AsO8,0.0
VCoGe,0.0
VCoB3,0.0
VCoAs,0.0
VCo4,0.0
VCuSnS4,0.0
VF2,0.0
VI3,0.0
VHO3,0.0
VHO2,0.0
VH3O4,0.0
VH2SeO5,0.0
VH11N3Cl5,0.0
VGeRu2,0.0
VGe2,0.0
VGaRu2,0.0
VH2,0.0
VMoO5,0.0
VMoAs2,0.0
VMo,0.0
VIr3,0.0
VGaNi6,0.0
VGaMo3S8,0.0
VFe3Sb2(PO4)6,0.0
VFe2Sn,0.0
VFe2Ni3(PO4)6,0.0
VFe(PO4)2,0.0
VFe(CuO2)2,0.0
VFe,0.0
VGaNi2,0.0
VFe4,0.0
VFeAs,0.0
VGaFeCo,0.0
VGaFe2,0.0
VGaCo2,0.0
VGa2FeCo4,0.0
VGa(CuO2)2,0.0
VGa,0.0
VFe7(PO4)12,0.0
VFeP,0.0
VFeO4,0.0
VFeCoSi,0.0
VFeCoSb,0.0
VFeCoGe,0.0
VFeRu2,0.0
W3O7F,0.0
W3O8,0.0
Y2(CuNi)5,0.0
Y2(CuS2)3,0.0
Y2(Ga3Ir)3,0.0
Y2(Ga3Rh)3,0.0
Y2(GePt3)3,0.0
Y2(InPb)3,0.0
Y2(InSn)3,0.0
Y2(Ni5B3)3,0.0
Y20Si12C,0.0
Y21B7(C7I9)2,0.0
Y2AgAu,0.0
Y2AgHg,0.0
Y2AgIr,0.0
Y2AlSi2,0.0
Y2AlNi2,0.0
Y2AlGe3,0.0
Y2AlCo3,0.0
Y2(CoNi)5,0.0
Y2AlCd,0.0
Y2Al3Fe14,0.0
Y2Al3Co14,0.0
Y2Al2Co15,0.0
Y2(CoCu)5,0.0
Y2(AlNi)5,0.0
Y12InNi6,0.0
Y12Co5Bi,0.0
Y12Al7Si,0.0
Y12(ReC3)5,0.0
Y12(OsC3)5,0.0
Y12(MnC3)5,0.0
Y12Ni6Pb,0.0
Y11Mg76,0.0
Y11Ge10,0.0
Y11Cd45,0.0
Y11(In3Ge2)2,0.0
Y10Si6B,0.0
Y2AlZn,0.0
Y12Re5C6,0.0
Y13Sn31Pd40,0.0
Y2(Al3Rh)3,0.0
Y2(Al3Pd)3,0.0
Y2(Al3Ir)3,0.0
Y19Mg97,0.0
Y16Mg3AlNi4,0.0
Y13Cd58,0.0
Y15(Ni4P3)7,0.0
Y14Mg(ReO14)2,0.0
Y14(InRh)3,0.0
Y2As7Rh12,0.0
Y2AsS,0.0
Y2Au,0.0
Y2Fe14C,0.0
Y2Fe14B,0.0
Y2Er4Fe23,0.0
Y2CuRu,0.0
Y2CuRh,0.0
Y2CuPt,0.0
Y2Fe17,0.0
Y2CuOs,0.0
Y2CuO4,0.0
Y2CuIr,0.0
Y2CuGe6,0.0
Y2Cu5Ni12,0.0
Y2Cu3Si,0.0
Y2Fe17C,0.0
Y2Ga2Fe15,0.0
Y2Ga2Co15,0.0
Y2FeSi2,0.0
Y2FeC4,0.0
Y2Fe3Si5,0.0
Y2Fe17N3,0.0
Y2Fe17H3,0.0
Y2Fe17CN,0.0
Y2Fe17C2,0.0
Y2Fe2O7,0.0
Y10Mn13C18,0.0
Y2CrN3,0.0
Y2CdHg,0.0
Y2CdGe2,0.0
Y2CdCu2,0.0
Y2C,0.0
Y2Bi2O7,0.0
Y2B6Ru,0.0
Y2B5Pd14,0.0
Y2BiO2,0.0
Y2Co17,0.0
Y2Co17C,0.0
Y2CoRu3,0.0
Y2CoNi5,0.0
Y2CoGe6,0.0
Y2Co3Si,0.0
Y2Co2I,0.0
Y2Co17H3,0.0
YCo2,0.0
Y10Cd3Ru,0.0
Y(BC)2,0.0
Y(BRu)4,0.0
Y(Bi3O5)4,0.0
Y(CO2)4,0.0
Y(Cd10Ni)2,0.0
Y(CoB)2,0.0
Y(CoB)4,0.0
Y(CoGe)2,0.0
Y(CoO2)2,0.0
Y(CoSi)2,0.0
Y(CrFe2)4,0.0
Y(Fe5Mo)2,0.0
Y(Fe2Ge)2,0.0
Y(CuSn)2,0.0
Y(CuSi)2,0.0
Y(CuO2)2,0.0
Y(CrSi)2,0.0
Y(CrFe5)2,0.0
Y(CrFe3)3,0.0
Y(CuGe)2,0.0
Y(AlFe2)4,0.0
WCl3O,0.0
WC,0.0
W8O21,0.0
W7N6,0.0
W4O9,0.0
WOF3,0.0
Y(AlFe)6,0.0
Y(AlCu)6,0.0
Y(Al5Ru)2,0.0
Y(Al5Re)2,0.0
WSe6ICl6,0.0
Y(Al3Fe)3,0.0
Y(Al2Cu)4,0.0
Y(Al2Cr)4,0.0
Y(Al10Cr)2,0.0
Y(Fe5Si)2,0.0
Y(Fe5W)2,0.0
Y(FeB)2,0.0
Y(SiAu)2,0.0
Y(Re2Si)2,0.0
Y(PdO2)2,0.0
Y(SiNi)2,0.0
Y(PRu)2,0.0
Y(NiP)2,0.0
Y(NiO2)2,0.0
Y(NiGe)2,0.0
Y(PPd)2,0.0
Y(SiOs)2,0.0
Y10Cd3Ni,0.0
Y10(SiGe)3,0.0
Y(VSn)6,0.0
Y(TiGa2)2,0.0
Y10Ga3Co7,0.0
Y(Ni2B)6,0.0
Y(GeRu)2,0.0
Y(GeRh2)2,0.0
Y(GeRh)2,0.0
Y(GePt)2,0.0
Y(GaFe)6,0.0
Y(GaCo)6,0.0
Y(InCu)6,0.0
Y(Ga5Mo)8,0.0
Y(FeSi)2,0.0
Y(FeO2)2,0.0
Y(FeGe)6,0.0
Y(FeSn)6,0.0
Y(Mn2Fe)4,0.0
Y(Ni2As)2,0.0
Y(Mo3Se4)2,0.0
Y(MnGe)6,0.0
Y(MnAl)6,0.0
Tb2Mo2O7,0.0
Rb2PdI6,0.0
Rb2Pu(Cl2O)2,0.0
Rb2PuO4,0.0
Rb2RhF6,0.0
Rb2RuO4,0.0
Rb2SBrCl6,0.0
Rb2SbAuBr6,0.0
Rb2SbAuI6,0.0
Rb2SbBr6,0.0
Rb2Ti3(P2O9)2,0.0
Rb2Tb3AlF16,0.0
Rb2TaAgI6,0.0
Rb2TaAgBr6,0.0
Rb2Ta15O32,0.0
Rb2ScHgI6,0.0
Rb2ScHgCl6,0.0
Rb2ScHgBr6,0.0
Rb2SbCl6,0.0
Rb2Ta2P7O24,0.0
Sb2MoS,0.0
Sb(MoO4)2,0.0
Rb2TiTlF6,0.0
Sb(WO4)2,0.0
Sb2HF13,0.0
Sb2F13,0.0
Sb(WO3)5,0.0
Sb2(PO4)3,0.0
Sb11S18,0.0
Sb10Pb10(S8Cl)3,0.0
Sb(Mo3S4)2,0.0
Rb2TlAgBr6,0.0
Rb2WBr6,0.0
Rb2YHgF6,0.0
Rb2YHgI6,0.0
Rb2Zn3GeAs4,0.0
Rb2Zn5Sb4,0.0
Rb3(Cr5Te8)4,0.0
Rb3(Cu4S3)2,0.0
Rb3(FeS2)2,0.0
Rb3(SeO4)2,0.0
Rb3Ca,0.0
Rb2VF6,0.0
Rb3Bi2,0.0
Rb3Bi,0.0
Rb3Ba,0.0
Rb3AuBr6,0.0
Rb3Au7,0.0
Rb2VCuF6,0.0
Rb2VCl6,0.0
Rb2VAgF6,0.0
Rb2TlPdF6,0.0
Rb2TlNiF6,0.0
Rb2TlHgF6,0.0
Rb2TlHgBr6,0.0
Rb2TlRuF6,0.0
Rb2TlCuF6,0.0
Rb2TlCuBr6,0.0
Rb2TlAuI6,0.0
Rb2TlAuF6,0.0
Rb2TlAuCl6,0.0
Rb2TlAgCl6,0.0
Rb2TlVF6,0.0
Rb2V3P4O17,0.0
Rb2V2O5,0.0
Rb2UTe3,0.0
Rb2UI5,0.0
Rb2UF6,0.0
Rb2U(PdS2)3,0.0
Rb2U3MnO11,0.0
Rb2U2O5,0.0
Rb2U(PtS2)3,0.0
ReNi(PbO3)2,0.0
ReNi2N3,0.0
ReO2,0.0
ReO3,0.0
RePO5,0.0
ReW3,0.0
ReTc3,0.0
ReTc,0.0
ReSi4W,0.0
ReSi2,0.0
ReRu3,0.0
ReRh3,0.0
RePt,0.0
ReSi4Mo,0.0
ReB2,0.0
Re8Pb8O27,0.0
Re7B3,0.0
Re6P13,0.0
Re5Si3,0.0
Re5(NiAs6)2,0.0
Re4Pb4O13,0.0
Re4As5S4,0.0
Re6Pb6O19,0.0
ReCl4,0.0
ReCl6,0.0
ReN,0.0
ReMo3,0.0
ReCl5,0.0
ReIr3,0.0
ReIr,0.0
ReGe2,0.0
ReF6,0.0
ReWO6,0.0
RuN2,0.0
RuN,0.0
RuF3,0.0
RuCl3,0.0
RuO2,0.0
RuCl2O,0.0
Ru4Pb4O13,0.0
RuPbO3,0.0
SO4,0.0
SI3O10,0.0
SBr3,0.0
RuOF4,0.0
RuXeF11,0.0
RuRhS4,0.0
RuRh4,0.0
RuRh3,0.0
RuRh,0.0
RuPt,0.0
RuW,0.0
Rb3CoO2,0.0
Ru2W3,0.0
Ru(OF3)2,0.0
Rh3W,0.0
Rh3Se8,0.0
Rh3S4,0.0
Rh3Pb,0.0
Rh3(PbSe)2,0.0
Rh2WO6,0.0
Rh(OF3)2,0.0
Rh3(PbS)2,0.0
RhSe2,0.0
RhSe,0.0
RhN2,0.0
RhI2,0.0
RhF5,0.0
RhPb,0.0
Re4(As2S)3,0.0
Rb3EuCl6,0.0
Rb3FeS3,0.0
RbEuPO4,0.0
RbEuSiS4,0.0
RbFe2S3,0.0
RbFe2Se3,0.0
RbFe2Te3,0.0
RbFe3O5,0.0
RbFeCl3,0.0
RbFeCu(PO4)2,0.0
RbFeCuF6,0.0
RbFeF4,0.0
RbFeN,0.0
RbFeO2,0.0
RbFeS2,0.0
RbFeSe2,0.0
RbIn4,0.0
RbHoHS2O9,0.0
RbEuO2,0.0
RbHg2,0.0
RbGe3,0.0
RbGa7,0.0
RbFeSe2O7,0.0
RbHg11,0.0
RbEuAsS3,0.0
RbCrN2,0.0
RbCrI3,0.0
RbCrCuF6,0.0
RbCr5Te8,0.0
RbCr3S5,0.0
RbCu4Se3,0.0
RbCoO2,0.0
RbCoCuF6,0.0
RbCuBr3,0.0
RbCuCl3,0.0
RbEu(WO4)2,0.0
RbEu(SO4)2,0.0
RbEu(PO3)4,0.0
RbEu(MoO4)2,0.0
RbCuSnS3,0.0
RbCuPdF5,0.0
RbCuPO4,0.0
RbCuF3,0.0
RbDyBr3,0.0
RbInI3,0.0
RbMgMn4O8,0.0
RbMgV4O10,0.0
RbMn4O8,0.0
RbMn6O12,0.0
RbMnN,0.0
RbMnO2,0.0
RbMnP,0.0
RbMnP3HO10,0.0
RbMnSe2,0.0
RbMnTe2,0.0
RbMo6Se7,0.0
Sb2Pd,0.0
Sb2Pb2O7,0.0
Sb2P4H3O16,0.0
RbNb3(PO5)3,0.0
RbNaMg14,0.0
RbNa3,0.0
RbNa2Ge17,0.0
RbNa2Bi,0.0
RbMoO3,0.0
RbMoN2,0.0
RbMg6Sb,0.0
RbMg30TiO32,0.0
RbMg30SiO32,0.0
RbMg14Bi,0.0
RbMg14Al,0.0
RbLiMnS2,0.0
RbMg14Cd,0.0
RbLiMg14,0.0
RbLiCu2H3(SO5)2,0.0
RbLaMg14,0.0
RbLa9(IrO6)4,0.0
RbIrO3,0.0
RbMg15,0.0
RbMg14Zr,0.0
RbMg14Zn,0.0
RbMg14Sn,0.0
RbMg14MnO16,0.0
RbMg14Ga,0.0
RbMg14FeO16,0.0
RbMg14CrO16,0.0
RbCeTe2,0.0
RbCeMg30O32,0.0
Rb3Sn,0.0
Rb3TiF6,0.0
Rb3UF6,0.0
Rb3VF6,0.0
Rb3Zn3(MoO4)4,0.0
Rb4(Mo7Se8)3,0.0
Rb4(ZnAs)7,0.0
Rb4Ca(Se2O7)2,0.0
Rb4Fe2S5,0.0
Rb4FeSbCl12,0.0
Rb3RuF6,0.0
Rb4MgV2(AgS4)2,0.0
Rb4MgNb2(CuS4)2,0.0
Rb3PdF6,0.0
Rb3Mg,0.0
Rb3Li,0.0
Rb3IrCl6O,0.0
Rb3Hg,0.0
Rb3Mn16O32,0.0
Rb3Pb,0.0
Rb3NiF6,0.0
Rb3NbF12,0.0
Rb3Nb2Br9,0.0
Rb3Na,0.0
Rb3Mo4(P2O11)2,0.0
Rb3Mo15Se17,0.0
Rb3MnH5,0.0
Rb4P3(PdS4)3,0.0
Rb4Sb2O5,0.0
RbAuBr3,0.0
RbAlCuF6,0.0
RbAgF3,0.0
RbAg5Se3,0.0
Rb9O2,0.0
RbAuF3,0.0
RbBa3,0.0
RbCeMg14,0.0
RbCeF4,0.0
RbCd4As3,0.0
RbCd13,0.0
RbCaMg14,0.0
RbBr3,0.0
RbBiO3,0.0
RbBi3S5,0.0
RbBi2,0.0
RbCa(FeAs)4,0.0
Rb3FeMo4O15,0.0
Rb8Tl11,0.0
Rb8In11,0.0
Rb5(WO3)18,0.0
Rb5(W4O15)2,0.0
Rb5Dy3Br12,0.0
Rb5(DyI4)3,0.0
Rb4TmI6,0.0
Rb4Sn2Au7,0.0
Rb4Sn20Hg3,0.0
Rb4SbRhCl12,0.0
Rb4SbO4,0.0
Rb8Mo33S37,0.0
Rb5Hg19,0.0
Rb5Mo27Se31,0.0
Rb8Hg3Ge43,0.0
Rb7(FeTe2)4,0.0
Rb6O,0.0
Rb6Mo27S31,0.0
Rb5Mo18S19,0.0
Rb6Mn2CrCl12,0.0
Rb6Ga10Se20O61,0.0
Rb5Tl9,0.0
Rb5Tl11Cd2,0.0
Rb5Sb4,0.0
Rb5NO5,0.0
Sb2Pd5,0.0
Re3W,0.0
Re3Te4Br3,0.0
Rb(AsIr)2,0.0
Rb(AsRu)2,0.0
Rb(CoAs)2,0.0
Rb(CoP)2,0.0
Rb(CoS)2,0.0
Rb(CoSe)2,0.0
Rb(Mg4Al3)4,0.0
Rb(IrO2)6,0.0
Rb(InAu2)2,0.0
Rb(In3Au2)2,0.0
Rb(IO3)3,0.0
Rb(CrS2)2,0.0
Rb(GePt)4,0.0
PuTe3,0.0
PuTe2,0.0
PuTe,0.0
PuTcB4,0.0
PuTcB2,0.0
PuSnAu2,0.0
PuSi2,0.0
PuSi,0.0
PuSe2,0.0
PuSe,0.0
Rb(MoS)9,0.0
PuTlO3,0.0
PuUC2,0.0
PuZr4C5,0.0
PuU4N5,0.0
PuWC2,0.0
PuVO3,0.0
PuUC3,0.0
PuZnAu2,0.0
PuSbTe,0.0
Rb(OsO3)2,0.0
Rb2AsAuBr6,0.0
Rb2Ba8Li(Sb3O)2,0.0
Rb2Bi2O5,0.0
Rb2CaNb2(TeO6)2,0.0
Rb2Cd3SnAs4,0.0
Rb2Cd5As4,0.0
Rb2CeAgF6,0.0
Rb2CeAuCl6,0.0
Rb2Co2(MoO4)3,0.0
Rb2Cu(ClF)2,0.0
Rb2CrF6,0.0
Rb2CrCl4,0.0
Rb2Cr(ICl)2,0.0
Rb2Cr(BrCl)2,0.0
Rb2CoS2,0.0
Rb2CoPb(NO2)6,0.0
Rb2Co3S4,0.0
Rb2CoSe2,0.0
Rb2AlAuBr6,0.0
Rb(WO3)3,0.0
Rb(WO3)2,0.0
Rb(Ti3Se4)2,0.0
Rb(ThSe3)2,0.0
Rb(TeMo)3,0.0
Rb(PIr)2,0.0
Rb(TeO3)2,0.0
Rb(NbS2)2,0.0
Rb(WO3)4,0.0
Rb2AgRuF6,0.0
Rb2AgPdF6,0.0
Rb2AgAuCl6,0.0
Rb2AgAuBr6,0.0
Rb11Cu18(Cl15O)2,0.0
Rb(Zr3Te4)4,0.0
Rb(WO3)6,0.0
PuSb3,0.0
PuSb2,0.0
Pr5Co2,0.0
Pr5CoSb2,0.0
Pr5CuBi3,0.0
Pr5Fe2Sb,0.0
Pr5Ga3,0.0
Pr5Ge3,0.0
Pr5Ge3C,0.0
Pr5Ge3O13,0.0
Pr5Ge4,0.0
Pr5Ir2,0.0
Pr5Ir3,0.0
Pr5Mg,0.0
Pr5Mg41,0.0
Pr5Si3,0.0
Pr5Si2Ge,0.0
Pr5S9,0.0
Pr5Ru2,0.0
Pr5Pb4,0.0
Pr5Co19,0.0
Pr5Pb3,0.0
Pr5NiSb2,0.0
Pr5NiPb3,0.0
Pr5Ni19,0.0
Pr5Mo3O16,0.0
Pr5Cl12,0.0
Pr5Bi3Br,0.0
Pr4MgRh,0.0
Pr4MgNi,0.0
Pr4MgIr,0.0
Pr4MgCo,0.0
Pr4Mg7Ge6,0.0
Pr4Mg3Co2,0.0
Pr4In5Cu19,0.0
Pr4In21Pd10,0.0
Pr4Ho2Mn23,0.0
Pr4Ge7,0.0
Pr4Ge3,0.0
Pr4FeAs4Ru3O4,0.0
Pr4OsI5,0.0
Pr5Al4(AgGe2)2,0.0
Pr5Al2Ru3,0.0
Pr5AgSn3,0.0
Pr5(Sn5Rh2)2,0.0
Pr5(Sn5Ir2)2,0.0
Pr4NiI5,0.0
Pr4ZrCo25,0.0
Pr4Sb3,0.0
Pr4RuI5,0.0
Pr5(In2Pt)2,0.0
Pr5Si4,0.0
PuPt,0.0
PuPd3,0.0
PuPd,0.0
PuPbAu2,0.0
PuPt3,0.0
PuPO4,0.0
PuP3,0.0
Pr7O12,0.0
Pr7In6Ni5Ge3,0.0
PuSb,0.0
PuS3,0.0
PuS2,0.0
PuReB4,0.0
PuReB2,0.0
PuRh3C,0.0
Pr7FeI12,0.0
Pr6ZnFe13,0.0
Pr6Fe13Ge,0.0
Pr6Fe13Cu,0.0
Pr6Fe13Bi,0.0
Pr6Fe13Au,0.0
Pr6Fe13As,0.0
Pr6Fe13Ag,0.0
Pr6Al3Fe11,0.0
Pr5Tl3,0.0
Pr5Sn4,0.0
Pr5Sn3Au,0.0
Pr6Cd4Pd13,0.0
Pr7Al7Co6,0.0
Pr6Fe13Pb,0.0
Pr6Fe13Si,0.0
Pr6TlFe13,0.0
Pr6Si4Ni7,0.0
Pr6Si3Ni2,0.0
Pr6Ni20P13,0.0
Pr6N8O33,0.0
Pr6Mg23C,0.0
Pr6InFe13,0.0
Pr6Fe13Sn,0.0
Pr6Ni3Sn14,0.0
Rb2CuAuF6,0.0
Rb2CuCl4,0.0
RbSrMg14,0.0
RbTa2O6,0.0
RbTe6,0.0
RbTeAu,0.0
RbTeO3,0.0
RbTeOF4,0.0
RbTiBr3,0.0
RbTiCl3,0.0
RbTiI3,0.0
RbTiS2,0.0
RbTl(FeSe)8,0.0
RbTl2Bi,0.0
RbTl3,0.0
RbUAgS3,0.0
RbU3TiTe9,0.0
RbTmI3,0.0
RbTmBr3,0.0
RbTlF3,0.0
RbTlI3,0.0
RbPuO3,0.0
RbPtO3,0.0
RbPdO3,0.0
RbPdF3,0.0
RbPdCl3,0.0
RbReN2,0.0
RbPO4,0.0
RbP4(WO4)8,0.0
RbOsO3,0.0
RbO2,0.0
RbNpO3,0.0
RbPd2F5,0.0
RbUAgSe3,0.0
RbReO3,0.0
RbRuO3,0.0
RbSr2MgNb3O10,0.0
RbSnO3,0.0
RbSn3,0.0
RbSeBr3,0.0
RbScCl3,0.0
RbScBr3,0.0
RbSbO3,0.0
RbS,0.0
RbNpCuS3,0.0
RbUAuSe3,0.0
RbUTe3Au,0.0
Re3As7,0.0
Re3Ge7,0.0
Re3HgO9,0.0
Re3Ir,0.0
Re3Mo,0.0
Re3Mo2,0.0
Re3N,0.0
Re3N5,0.0
Re3NiO8,0.0
Re3O8,0.0
Re3Tc,0.0
Re3Se4Br3,0.0
Re3S4Br3,0.0
Re3Ru,0.0
Re3Rh,0.0
Re3Pt,0.0
Re3Pb3O10,0.0
Re3P4,0.0
Re2SbO6,0.0
Re2PbO6,0.0
Re,0.0
RbZr6CI14,0.0
RbZn4As3,0.0
RbWO3,0.0
RbVCuF6,0.0
RbV4O10,0.0
RbWCl6,0.0
Re(RhO3)2,0.0
Re2NiO6,0.0
Re2Ni(MoS4)2,0.0
Re2C,0.0
Re24Mo5,0.0
Re2(PCl8)3,0.0
Re2(CN2)3,0.0
Re2Mo3C,0.0
RbNiC2N2Cl,0.0
RbNi2F6,0.0
RbNd2I5,0.0
Rb2HgSbBr6,0.0
Rb2HgSbF6,0.0
Rb2HgSbI6,0.0
Rb2In3,0.0
Rb2InAgI6,0.0
Rb2InAsI6,0.0
Rb2InAuBr6,0.0
Rb2InAuCl6,0.0
Rb2InCuBr6,0.0
Rb2InCuF6,0.0
Rb2InHgBr6,0.0
Rb2InHgCl6,0.0
Rb2LiNb2(TeO6)2,0.0
Rb2LiMnF6,0.0
Rb2LiEuCl6,0.0
Rb2HgRhF6,0.0
Rb2Li(OsO3)2,0.0
Rb2InHgI6,0.0
Rb2InHgF6,0.0
Rb2HgIrF6,0.0
Rb2GaAuBr6,0.0
Rb2FeI4,0.0
Rb2FeCu(CN)6,0.0
Rb2GaAuCl6,0.0
Rb2EuAuCl6,0.0
Rb2CuRuF6,0.0
Rb2CuNiF6,0.0
Rb2CuF6,0.0
Rb2CuF4,0.0
Rb2EuAgCl6,0.0
Rb2GaAuI6,0.0
Rb2GaHgCl6,0.0
Rb2HgBiF6,0.0
Rb2HgBiBr6,0.0
Rb2HgAuBr6,0.0
Rb2GaHgBr6,0.0
Rb2HgAsF6,0.0
Rb2HgAsBr6,0.0
Rb2HgAsI6,0.0
Rb2NaTaCl6,0.0
Rb2NaTaBr6,0.0
Rb2NaRuF6,0.0
Rb2NaPdF6,0.0
Rb2NaPbF6,0.0
Rb2NaNiF6,0.0
Rb2NaTaI6,0.0
Rb2NaFe(CN)6,0.0
Rb2NaEuCl6,0.0
Rb2NaCoF6,0.0
Rb2NaAuCl6,0.0
Rb2NaAuBr6,0.0
Rb2Na2IrO4,0.0
Rb2NaMnF6,0.0
Rb2NaTiF6,0.0
Rb2NaVCl6,0.0
Rb2PbCl5,0.0
Rb2PSO8,0.0
Rb2Np2O5,0.0
Rb2NiAuF6,0.0
Rb2NaTlI6,0.0
Rb2NbTlF6,0.0
Rb2NbHgF6,0.0
Rb2NaVF6,0.0
Rb2CuC2O7,0.0
Rb2Mo9Se10,0.0
Rb2Mg,0.0
Rb2LiVF6,0.0
Rb2LiVCl6,0.0
Rb2MgCu4H5(SO5)4,0.0
Rb2LiTaI6,0.0
Rb2LiNiF6,0.0
Rb2LiTaCl6,0.0
Rb2MoBr6,0.0
Rb2Mo15Se19,0.0
Rb2Mo(IO3)6,0.0
Rb2MnTe2,0.0
Rb2MnSe2,0.0
Rb2MnS2,0.0
Rb2MnAuF6,0.0
Rb2Mn3Se4,0.0
Rb2MgV2(CuS2)4,0.0
Rb2MnFe(CN)6,0.0
Sb2Pt,0.0
Sb2Rh,0.0
ScOs2,0.0
ScP,0.0
ScP2O7,0.0
ScPPt,0.0
ScPRu,0.0
ScPaOs2,0.0
ScPaTc2,0.0
ScPd2Pb,0.0
ScPd3,0.0
ScPt,0.0
ScRe2,0.0
ScSbRh2,0.0
ScSb3,0.0
ScS,0.0
ScRu,0.0
ScRh3,0.0
ScRh2Pb,0.0
ScRh,0.0
ScReGe2,0.0
ScRe2Si3,0.0
ScRh3C,0.0
ScNiSn,0.0
ScNiP,0.0
ScN,0.0
ScMnSi,0.0
ScMnGe2,0.0
ScMnGe,0.0
ScMn6GaGe5,0.0
ScMn6(Sn2Ge)2,0.0
ScMn2O4,0.0
ScMn2Ga3S8,0.0
ScMn2,0.0
ScMnCr,0.0
ScSbRu2,0.0
ScNiGe,0.0
ScNiC2,0.0
ScNiB4,0.0
ScNi5,0.0
ScNi4Au,0.0
ScNi3,0.0
ScNi2Sn,0.0
ScNi2SbO6,0.0
ScIr3,0.0
ScSe,0.0
ScTc3,0.0
ScTe,0.0
ScTi4(NiSn)5,0.0
ScTiO3,0.0
ScTiRu2,0.0
ScTlRh2,0.0
ScU3Sb5,0.0
ScU8S17,0.0
ScUS2,0.0
ScUS3,0.0
ScUTc2,0.0
ScV4Si3,0.0
ScVRu2,0.0
ScZnCu,0.0
ScZnAu2,0.0
ScZn3,0.0
ScZn2Pt,0.0
ScZn2Pd,0.0
ScZn2Au,0.0
ScZn2Ag,0.0
ScZn10(B4Rh9)2,0.0
ScZn,0.0
ScTc2Mo,0.0
ScTc2,0.0
ScTaTc2,0.0
ScSiPt,0.0
ScSiPd,0.0
ScSiRu,0.0
ScSiNi,0.0
ScSi7Ir3,0.0
ScSi3Ni2,0.0
ScSi3Ni,0.0
ScSi2Rh,0.0
ScSiIr,0.0
ScSe2,0.0
ScSn2,0.0
ScTaRu2,0.0
ScTaOs2,0.0
ScTaFe2,0.0
ScSnRu2,0.0
ScSn,0.0
ScSnPt,0.0
ScSnPd2,0.0
ScSnPd,0.0
ScSnAu,0.0
ScCdPd2,0.0
ScCdPt2,0.0
ScCo,0.0
ScCo2,0.0
ScCo2Sn,0.0
ScCo5P3,0.0
ScCoB4,0.0
ScCoGe,0.0
ScCoGe2,0.0
ScCoNiSn,0.0
ScCoO3,0.0
ScCu4Sn,0.0
ScCu3,0.0
ScCu2,0.0
ScCdNi4,0.0
ScCu,0.0
ScCrGe2,0.0
ScCoSi,0.0
ScCoP,0.0
ScCrO4,0.0
ScCdHg2,0.0
ScCdCu2,0.0
ScB2Ir3,0.0
ScB2C,0.0
ScB2,0.0
ScB12,0.0
ScAu4,0.0
ScB4Ir3,0.0
ScAu3,0.0
ScAs,0.0
ScAlRh2,0.0
ScAlPt2,0.0
ScAlPd2,0.0
ScCuPd2,0.0
ScBIr3,0.0
ScCdAg2,0.0
ScCd7,0.0
ScCd3,0.0
ScBr2,0.0
ScBiPd2,0.0
ScBC,0.0
ScBiPd,0.0
ScBi,0.0
ScBRh3,0.0
ScBPt3,0.0
ScBPd3,0.0
ScCuSi,0.0
ScCuSn,0.0
ScH4Pd3,0.0
ScH3,0.0
ScH2,0.0
ScGeRu,0.0
ScHCl,0.0
ScGeRh,0.0
ScGePd,0.0
ScGeOs,0.0
ScGeIr,0.0
ScGeAu,0.0
ScGe2Ru,0.0
ScHg,0.0
ScI2,0.0
ScInPt2,0.0
ScInPd2,0.0
ScInNi4,0.0
ScInNi2,0.0
ScHg3,0.0
ScInIr2,0.0
ScInCu2,0.0
ScInAg2,0.0
ScIn2,0.0
ScIn,0.0
ScZnCu2,0.0
ScGe2,0.0
ScGaRu2,0.0
ScGa2,0.0
ScFeSi2,0.0
ScFeSi,0.0
ScGa2Ni,0.0
ScFeO3,0.0
ScFeGe,0.0
ScFeB4,0.0
ScFe2,0.0
ScFeGe2,0.0
ScGe,0.0
ScGa2Ru,0.0
ScGa4Fe3Co8,0.0
ScGaPt2,0.0
ScGaPt,0.0
ScGaPd,0.0
ScGaNi2,0.0
ScGa3,0.0
ScGaNi,0.0
ScGaCu,0.0
ScGa5Ni,0.0
ScGa5Fe,0.0
ScGa5Co,0.0
ScGaIr2,0.0
ScZnPd,0.0
Sm5Br11,0.0
Sm5Co19,0.0
Sm5CuPb3,0.0
Sm5Ge3,0.0
Sm5Ge3C,0.0
Sm5Ir3,0.0
Sm5Mg,0.0
Sm5Mg41,0.0
Sm5P12Ru19,0.0
Sm6Al39V8,0.0
Sm6Al39Cr8,0.0
Sm5Tl3,0.0
Sm5Sn4,0.0
Sm5Sn3,0.0
Sm5Bi3,0.0
Sm5Si3O13,0.0
Sm5Si3,0.0
Sm5Se9,0.0
Sm5Sb3H,0.0
Sm5Sb3,0.0
Sm5Ru2,0.0
Sm5Pb4,0.0
Sm5Si3C,0.0
Sm5B4Rh15,0.0
Sm4Mg3Co2,0.0
Sm4Mg(Cu2O5)2,0.0
Sm4Ge9Ir13,0.0
Sm4Mg7Ge6,0.0
Sm4Ga3Fe31,0.0
Sm4Ga16Co3,0.0
Sm4Fe34C3,0.0
Sm4Fe31Si3,0.0
Sm4Ga7Ag5,0.0
Sm6Al3Fe11,0.0
Sm4MgRu,0.0
Sm5(SiB4)2,0.0
Sm5(In2Pt)2,0.0
Sm4MgRh,0.0
Sm4TiFe33N4,0.0
Sm4Ti4S4O9,0.0
Sm4Sn3,0.0
Sm4Si3Pd4,0.0
Sm4Sb3,0.0
Sm4NiS7,0.0
Sm4Ni3Ge8,0.0
Sm4TiFe33,0.0
Sm4Fe31Co3,0.0
Sm6Al43Cr4,0.0
Sm8MgTi4O20,0.0
Sm8Sb3O8,0.0
Sm9(SbO)5,0.0
Sm9Ga4,0.0
SmAg2Hg,0.0
SmAg2Sn,0.0
SmAg3,0.0
SmAgAs2,0.0
SmAgGe,0.0
SmAgHg2,0.0
SmAgPb,0.0
SmAl,0.0
SmAl8SiAu4,0.0
SmAl5,0.0
SmAl3Cu,0.0
SmAl3,0.0
SmAl2Ni,0.0
SmAl2,0.0
SmAl3Ni2,0.0
Sm6Mg23C,0.0
Sm6InCo2,0.0
Sm6GaCo2,0.0
Sm6Fe23,0.0
Sm6MnS10,0.0
Sm6Fe13Sn,0.0
Sm6Co2Sn,0.0
Sm6Co2Si3,0.0
Sm6Br13,0.0
Sm6Al43W4,0.0
Sm6Al43Mo4,0.0
Sm8Al53Si17Ru12,0.0
Sm7Rh3,0.0
Sm6TlFe13,0.0
Sm6Ti4Al43,0.0
Sm6Ta2Ti4O21,0.0
Sm6Si19Rh30,0.0
Sm7Pd3,0.0
Sm4Fe31(CoC2)3,0.0
Sm4Fe27Co7C2,0.0
Sm4EuS5,0.0
Si2W,0.0
Si3B3W10,0.0
Si3Mo3W2,0.0
Si3Mo5,0.0
Si3MoPt2,0.0
Si3Pt2,0.0
Si3Ru4,0.0
Si3W5,0.0
Si4BiO10,0.0
Si4Ir3,0.0
Si4Mo8Pt5,0.0
Si6BiO14,0.0
Si6Bi9O26,0.0
Si5Rh4,0.0
Si5Pt6,0.0
Si2TcOs,0.0
Si5Ir4,0.0
Si5GeW10,0.0
Si4Ni9B2,0.0
Si4MoW,0.0
Si2Ru,0.0
Si2Rh3,0.0
Si17CO34,0.0
Si13Rh20,0.0
Si(NiO2)2,0.0
Si(Ni3Se)2,0.0
Si(Bi3O5)5,0.0
Si2Bi14IrI12,0.0
Si,0.0
ScZnRh2,0.0
ScZnPt2,0.0
ScZnPt,0.0
ScZnPd2,0.0
Si6Ni3Au,0.0
Si2Bi14RhI12,0.0
Si2Ir,0.0
Si2Pd9,0.0
Si2P4Rh,0.0
Si2P4Ir,0.0
Si2OsRu,0.0
Si2NiP3,0.0
Si2Ni5P3,0.0
Si2Ni3,0.0
Si2Ni,0.0
Si2Mo3,0.0
Si2Mo,0.0
Si6NiMo9,0.0
Si7(Ni2Au)2,0.0
Si9Ni25,0.0
Sm3ZrSb5,0.0
Sm3Zr,0.0
Sm3Zn22,0.0
Sm3Zn11,0.0
Sm3Zn,0.0
Sm4(CoB2)3,0.0
Sm3YS4,0.0
Sm3TmS4,0.0
Sm3Tm,0.0
Sm3TlC,0.0
Sm3Y,0.0
Sm3TiSb5,0.0
Sm4CuSn8,0.0
Sm4CrS7,0.0
Sm4Cr3Fe31C4,0.0
Sm4Cr3Fe31,0.0
Sm4(FeB2)3,0.0
Sm4CdPt,0.0
Sm4Bi3,0.0
Sm4Bi2O,0.0
Sm4As3,0.0
Sm4Al23Ni6,0.0
Sm4(TmS2)11,0.0
Sm4(LuS2)11,0.0
Sm4CdIr,0.0
ScZnNi2,0.0
Sm3Ti4CoO14,0.0
SiIr3,0.0
SiIr2,0.0
SiIr,0.0
SiMo,0.0
SiB2Mo5,0.0
SiAu3,0.0
SiAgPt5,0.0
SiAg6SO8,0.0
SiAg3,0.0
SiNi,0.0
SiNiW,0.0
SiNiMo,0.0
SiNi6Ge,0.0
SiNi3W2,0.0
SiNi3Mo2,0.0
SiNi3,0.0
SiNi2P,0.0
SiNi2As,0.0
ScAlNi,0.0
ScAlIr2,0.0
ScAlGe,0.0
Sc2AlZn,0.0
Sc2Au,0.0
Sc2B4Os5,0.0
Sc2B4Ru5,0.0
Sc2B6Ir,0.0
Sc2BC2,0.0
Sc2BeB2Ir5,0.0
Sc2BeRu,0.0
Sc2BeTc,0.0
Sc2C,0.0
Sc2C3,0.0
Sc2CdAg,0.0
Sc2CdAu,0.0
Sc2CoGe2,0.0
Sc2CoCu,0.0
Sc2CoB2Ir5,0.0
Sc2Co3Si5,0.0
Sc2AlTc,0.0
Sc2Co12P7,0.0
Sc2Co,0.0
Sc2CdIn,0.0
Sc2CdHg,0.0
Sc2AlSi2,0.0
Sc2AlRu,0.0
Sc2AlOs,0.0
Sc22Fe7S40,0.0
Sc20O19,0.0
Sc2(Ni7B2)3,0.0
Sc2(NbSi)3,0.0
Sc2(NbGe)3,0.0
Sc25InIr7,0.0
Sc2(Co7B2)3,0.0
Sc16O15,0.0
Sc15C19,0.0
Sc14Cu14O37,0.0
Sc13Os3Br16,0.0
Sc13Cu13O33,0.0
Sc2(Al3Co)3,0.0
Sc2CoOs,0.0
Sc29Fe6,0.0
Sc2AgHg,0.0
Sc2AlB2Ir5,0.0
Sc2AgAu,0.0
Sc2AlAg,0.0
Sc2Al3Mo4C3,0.0
Sc2Al,0.0
Sc2AgPt,0.0
Sc2AgOs,0.0
Sc2AgIr,0.0
Sc2Al3Ru,0.0
Sc12I25,0.0
Sc2CoRu,0.0
Sc2GaCu,0.0
Sc2GaNi,0.0
Sc2GaOs,0.0
Sc2GaPd,0.0
Sc2GaPt,0.0
Sc2GaRu,0.0
Sc2GaTc,0.0
Sc2GeB2Ir5,0.0
Sc2H5,0.0
Sc2In,0.0
Sc2InAu2,0.0
Sc2InC,0.0
Sc2InHg,0.0
Sc2MnB2Rh5,0.0
Sc2MnB2Ir5,0.0
Sc2Mn12P7,0.0
Sc2Ir,0.0
Sc2InPd2,0.0
Sc2InNi2,0.0
Sc2GaB2Rh5,0.0
Sc2GaB2Ir5,0.0
Sc2GaAu,0.0
Sc2CuPt,0.0
Sc2CuPd,0.0
Sc2CuNi,0.0
Sc2CuB2Ir5,0.0
Sc2CuRh,0.0
Sc2CrC3,0.0
Sc2CrB6,0.0
Sc2Cr4Si5,0.0
Sc2CoSi2,0.0
Sc2CuRu,0.0
Sc2Fe3Ru,0.0
Sc2GaAg,0.0
Sc2Ga8Ni,0.0
Sc2Ga8Co,0.0
Sc2Ga3Cu,0.0
Sc2FeSi2,0.0
Sc2FeS4,0.0
Sc2CuTc,0.0
Sc2FeB2Ru2Rh3,0.0
Sc2FeB2Rh5,0.0
Sc2Fe3Si5,0.0
Sc2Fe3Si,0.0
Sc2FeB2Ru4Rh,0.0
Sc11Ru4,0.0
Sc11Os4,0.0
Sc11Ir4,0.0
SbAsPd5,0.0
SbAu3,0.0
SbF6,0.0
SbIr,0.0
SbNO,0.0
SbO3,0.0
SbP2O7,0.0
SbPdS,0.0
SbPd6Se,0.0
SbPd6S,0.0
SbPd3,0.0
SbAsPd,0.0
SbPb4,0.0
SbPb3S4,0.0
SbPd,0.0
SbAs,0.0
Sb9PO25,0.0
Sb3O7F,0.0
Sb3O7,0.0
Sb3H36(C3I2)4,0.0
Sb2XeF13,0.0
Sb2Te3,0.0
Sb2Te,0.0
Sb2S5,0.0
SbPdSe,0.0
Sb3Pd8,0.0
Sb8Pd3Au,0.0
Sb7Pd20,0.0
Sb7Mo3,0.0
Sb5S3O5,0.0
Sb5O14,0.0
Sb4Pb4S11,0.0
Sb4IO6,0.0
SbPt,0.0
SbPt3,0.0
Sc(MnSn)6,0.0
Sc(MnGe)6,0.0
Sc(MnAl2)4,0.0
Sc(Ga5Mo)8,0.0
Sc(FeSn)6,0.0
Sc(FeGe)6,0.0
Sc(Fe5Si)2,0.0
Sc(Fe2Si)2,0.0
Sc(CuSi)2,0.0
Sc(FeSi)2,0.0
Sc(P2Rh3)2,0.0
Sc(ReO3)2,0.0
Sc11Ge10,0.0
Sc11Ga9,0.0
Sc11Ga10,0.0
Sc11(AlGe4)2,0.0
Sc(VSi)5,0.0
Sc(VN)9,0.0
Sc(US2)3,0.0
Sc(TiN)9,0.0
Sc(TiGa2)2,0.0
Sc(VGe)5,0.0
Sc2MnSe4,0.0
Sc(CoGe)6,0.0
SbTe,0.0
SbSeO5,0.0
SbRh,0.0
SbPtSe,0.0
SbPtS,0.0
SbPt7,0.0
SbRh2,0.0
Sc(CoSi)2,0.0
SbTe2,0.0
SbTePd,0.0
Sc(BRu)4,0.0
Sc(Al2Fe)4,0.0
Sc,0.0
SbTe3O8,0.0
SbTePt,0.0
SbTePd2,0.0
Sc2NCl2,0.0
Sc5(Si5Rh2)2,0.0
Sc50In3Rh13,0.0
Sc57Rh13,0.0
Sc5As3,0.0
Sc5BRh15,0.0
Sc5Bi3,0.0
Sc5CCl8,0.0
Sc5Cl8,0.0
Sc5Cu5O13,0.0
Sc5Ga3,0.0
Sc5Ge4,0.0
Sc5NCl8,0.0
Sc6AgTe2,0.0
Sc5Sn3,0.0
Sc5Si4,0.0
Sc5Si3,0.0
Sc5Ru3,0.0
Sc5Re2C7,0.0
Sc5Re24,0.0
Sc5Pb3,0.0
Sc5P12Ir19,0.0
Sc5OsCl9,0.0
Sc5RuCl9,0.0
Sc44Ir7,0.0
Sc3V,0.0
Sc44Ru7,0.0
Sc3TlB,0.0