formula,band_gap
Er3S3OF,0.4717000000000002
SrLaZnRuO6,0.4717000000000002
PtSeS,0.4717000000000002
SnTe4Pb3,0.4720000000000004
K9In9GeSb22,0.4721999999999999
CuAg2P2O7,0.4723000000000001
RbNiBr3,0.4723000000000001
MgMn(SbO3)4,0.4725999999999999
KCu3S2,0.4727000000000005
Y4MnS7,0.4727000000000005
Pr2EuS4,0.4727999999999994
Nd4Re2O11,0.4729000000000001
MnAs3(PbO3)3,0.4729999999999998
VCdPO7,0.473
Ba2YInTe5,0.4731999999999998
SrEuNiWO6,0.4733
Ce2MgV2O8,0.4736000000000002
CoH20S2(NO7)2,0.4740999999999999
GdTlSe2,0.4740999999999999
YSbPd,0.4744000000000001
TlInS2,0.4748000000000001
Cd2Cu(PO4)2,0.4754
Cs3NaPb4,0.4754
Ca2SbWO6,0.4763000000000001
CrCo3O8,0.4764
Si2P2Pt,0.4765999999999994
MgTiMnO4,0.4767000000000001
Rb2Mo3O11,0.4772
Sr6Cu3N5,0.4772000000000003
Nd4FeS7,0.4772999999999996
SmH8(NO5)3,0.4773999999999999
NbI4,0.4775
Rb2LiAuF6,0.4775
NaLa2RuO6,0.4775
Na2NdN5O16,0.4775999999999999
SiS,0.4776
Na2SnAs2,0.4777
MoW(SeS)2,0.4777000000000001
Ca4Y2Al7Cr2SiO24,0.4779999999999997
MgCu3(SnO3)4,0.4779999999999997
TlO,0.4781000000000004
Li9Cr4(BO3)8,0.4782
Zn4Cu11(SnSe4)5,0.4782999999999999
Sm3MnAlS7,0.4783999999999997
Sc4FeBr5,0.4792999999999998
LiBSbO3,0.4794999999999998
Sr4Mn3O10,0.4796
NaCa3UH16C3SO25F,0.4796999999999999
Np(FeP3)4,0.4797999999999991
NaCoCSO7,0.4798
Li19Mn4P8O35F,0.4800999999999997
Nb3TeI7,0.4801000000000002
MgZn2P4(H4O5)4,0.4803999999999999
Ca2TaMnO6,0.4808000000000003
LiV6O13,0.4809000000000001
ZnCu2PH7O9,0.4809999999999998
Na2LiCeCl6,0.4811000000000001
KMnPCO7,0.4814
K5P2Au,0.4815
ZrSnPd,0.4816000000000002
Zn2Cu(AsO4)2,0.4821000000000002
ZnSnP2,0.4821999999999997
K2Na4Fe2O5,0.4821999999999999
Li4Mn5O10,0.4822999999999999
TiSnPd,0.4824000000000001
Zn7(SbO6)2,0.4824000000000001
MgMn3SbO8,0.4830999999999998
Sr3La3Zn2RuO12,0.4832000000000001
Na14Zn6Si5Ge2S7O48,0.4832999999999998
Mg2NiSbO6,0.4833999999999996
Mn(PO3)3,0.4834999999999999
Co15O28,0.4835
Na2NdGeO5,0.4837
Li4Mn2Co3Te3O16,0.4839999999999995
RbO2F,0.484
Li8MnO6,0.4845
Li2MnAsCO7,0.4846
Ba2ZnFe2CuF14,0.4846
Sc2CdSe4,0.4850000000000003
Mn3VTe2(PO4)6,0.4851000000000001
Re2P5,0.4851999999999998
Mn5Cu3(Te2O5)8,0.4852000000000003
Ba4Li2(CdP2)3,0.4853
TaCuN2,0.4853000000000005
Li5Nb6NiO18,0.4855
NaLiNbBiO6,0.4856
Mn3P6WO24,0.4858000000000001
MgMn3Zn2O8,0.4858000000000002
K3Er4(CuTe2)5,0.4859999999999997
LiV(FeO2)4,0.4859999999999997
Sb2TeSe2,0.4863999999999997
SrLaCuSe3,0.4863999999999997
Na2Cu3H8(SeO4)4,0.4863999999999999
Ta2Bi4Br7O2,0.4864999999999999
MgTi3V5O16,0.4867000000000003
Er2TeO2,0.4871999999999996
KPrV4O12,0.4873
Li(Fe2O3)4,0.4875000000000002
Li4CrBi(TeO6)2,0.4877000000000002
RbCu2H3(SO5)2,0.4878
Al6Cu2B4O17,0.4880999999999997
TmCO4,0.4881
Li2CoO2,0.4881999999999999
Li4Ti2Mn3O10,0.4884999999999997
Cs2Mo3P5O19,0.4887000000000001
Be12Al8Si24O73,0.4887000000000001
Sr4Bi6Se13,0.4887000000000001
ZnFeO2,0.4891999999999998
Mn2Si2Pb2O9,0.4891999999999998
Tl9SbTe6,0.4892000000000003
Ca2FeBiO6,0.4893
Mn(PbO2)2,0.4894999999999996
Ca3TiN3,0.4896000000000002
KZrInWO6,0.4898999999999995
MnSn3(PO4)4,0.4904000000000001
MgCo3SbO8,0.4904000000000001
LiMn2(CO3)4,0.4905
BaMgCuF7,0.4906
Li2MnBO4,0.4906000000000001
Nb3H12C4NCl9,0.4908
Sb2Au(XeF6)2,0.4908999999999999
AcGaTe2,0.4909999999999996
Na2Mn2S3,0.4915000000000002
LiVNiO4,0.4916
ZnCuAsHO5,0.4921999999999999
NaMnPCO7,0.4923999999999999
Ti3Co2Te(PO4)6,0.4925999999999999
Ba2NbCu2Pb2ClO8,0.4928999999999996
PrLuSe3,0.4935
Li4Fe5SbO12,0.4936000000000002
Y6NiI10,0.4936999999999996
NaSe,0.4942
Ca(PIr)2,0.4942999999999999
SrVSnWO6,0.4945000000000004
Na2Ca2Si3Sn6(S3O16)3,0.4946000000000001
NaCa2Fe5(SiO3)8,0.4946999999999999
Ba2CuSeO2,0.4947000000000003
Na5LiV6O18,0.4948000000000001
Y2CI2,0.4950999999999999
Mn5VO8,0.4954
ZrNiSn,0.4954
CuAgAs2H3O8,0.4955
LiMnPCO7,0.4956
NdLuSe3,0.4956
SrEuZnWO6,0.4957000000000002
Ti3Co3(TeO8)2,0.4958
Ge(BiTe2)2,0.4962000000000008
Na18Ca16Nb8Si9(S3O16)9,0.4962999999999999
Sm10S19,0.4965000000000001
SrTaNO2,0.4967000000000006
SrBiSe3,0.4969000000000001
Li5Mn2V3O10,0.4969999999999999
LaTaN3,0.4970999999999996
Na6Nb4Zn8Si3(S5O24)3,0.4973000000000001
K2TlGaI6,0.4975
Li2Mn3(BO3)4,0.4975999999999999
AgRhO2,0.4976000000000002
Sm2Mn2O7,0.4981
Li4Mn2Ni3Sn(PO4)6,0.4983999999999997
Mg149Al,0.4983999999999997
Tl2SnTe3,0.4986000000000006
Ca2NdRuO6,0.4992999999999998
YTh9MgO20,0.4993999999999996
CaMg149,0.4999000000000002
Sn4CN4,0.5005999999999995
Np2H12SO14,0.5005999999999999
Li4Ti3Mn3(CoO8)2,0.5007000000000001
Nd10S19,0.5009000000000006
Rb2In2Sb3,0.5012000000000003
NaNbSe2,0.5013999999999994
Li4MnV(WO6)2,0.5014999999999996
SrP2PdO7,0.5015000000000001
Mn7GeO12,0.5022000000000002
MnV2Pb2O9,0.5022000000000002
Mg3Mn5(BO4)4,0.5023
Rb2InGe4As7,0.5024000000000002
V7O13,0.5028000000000006
Li6Mn5O10,0.5028999999999999
Na2Sc2Nb2Si3(SO8)3,0.5029000000000001
Sr2Co(ClO)2,0.5029000000000003
Na2Mg2SiSn2S5O24,0.5030000000000001
VCu3Te3Se,0.5035999999999996
NaSr9Fe5(MoO6)5,0.5036
Mo2SeS3,0.5037000000000003
LiMn3F10,0.5045000000000002
Rb2UBr5,0.5046999999999997
NaCaN,0.5049000000000001
Li5Mn3Cr2O10,0.5053000000000001
Li4Nb3Fe3(TeO8)2,0.5055999999999994
Pr3Sb4Au3,0.5060000000000002
Na3Nb12O31,0.5061999999999998
Mg3Mn4O7,0.5062000000000006
RbSeO4,0.5063000000000002
NdCrO5,0.5064
LiFe2OF3,0.5070000000000001
Rb3InP2,0.5070999999999999
MgCr2Ag6(ClO4)2,0.5070999999999999
Ni2Te3O8,0.5076
Sb4Te7Pb,0.5077999999999996
Pr2EuSe4,0.5078000000000005
Na7Cr4(PO4)6,0.5078999999999998
Na4MgCr2O8,0.508
Li3Sb17S27,0.5084
V16Bi3O32,0.5085999999999999
Sr3LaZnRuO8,0.5087999999999999
NaTe3,0.5092000000000003
Pr10S19,0.5101000000000004
Rb3Na(RuO4)2,0.5102
Sn2SeS2,0.5106000000000002
Sm2EuSe4,0.5113000000000003
NdNiBi,0.5118999999999998
Sm2CoNiO6,0.512
MgSiSn3S5O24,0.5127000000000002
MgCr4(PbO4)4,0.5127000000000002
MoW3(SeS)4,0.5129000000000001
LiP5,0.5134999999999996
NbFeSb,0.5137999999999998
TbCrO5,0.5141
MgCr4Hg4(H2O9)2,0.5141
Na14Mg6Si5Ge2S7O48,0.5142000000000002
Na4Mn5O12,0.5142000000000002
Zn2TeSe,0.5146999999999999
V5O9,0.5147000000000004
POsSe,0.5156999999999998
Th2Se5,0.5162000000000004
NaMn3O6,0.5164999999999997
Mn3Cr3(SnO8)2,0.5169999999999999
W6CCl15,0.5169999999999999
Li4Nb3Co3(SnO8)2,0.5170999999999997
Sm2Mg(CuO3)2,0.5173999999999999
LiV5O10,0.5175000000000001
Sm4FeS7,0.5185999999999997
NaLa2OsO6,0.5186999999999999
LiZnN,0.5187000000000004
Rb3Cu2(BiS2)5,0.5187000000000004
Y3Mg2MoS8,0.5187999999999997
V2CoO7,0.5191
Li5Ti2Ni3O10,0.5196000000000001
Na8MgCr2O8,0.5196000000000001
NaB5H8O13,0.5206
TiNb3O6,0.5207999999999999
Na2PrGeO5,0.5208000000000002
Rb2PtI6,0.5209999999999999
Na18Nb4Zn8Si9(SO8)9,0.5216000000000001
Y4Mn3NiO12,0.5216000000000003
MgCrWO6,0.5218000000000003
Li3Ti2(FeO4)2,0.5219999999999998
Sr2CdAs2,0.5223
Y3AlFeS7,0.5225
Mn4OF8,0.5225
Na3V5O10,0.5230000000000001
V4Cd(SeO6)3,0.5231
Mn2InSbO6,0.5236999999999998
Pt(PbO2)2,0.5237999999999996
Mn3TeO6,0.5237999999999996
Y4Mg(WO5)4,0.5238
Mn3F8,0.5239
MnCd4Te5,0.5243000000000002
V16FeO41,0.5244
Zn3Cu3(TeO6)2,0.5244999999999997
Na4Eu(SiTe3)2,0.5257999999999998
NaCu2H3(SO5)2,0.5262
V8CuO20,0.5263999999999998
Rb2Cu3P4(O3F)4,0.5267999999999999
Mn3Cd3(TeO6)2,0.5274000000000001
NaLa(SeO5)2,0.5275000000000001
Na4MgV2O6,0.5275000000000003
LiMn3CrO8,0.5277000000000001
TlCu2H(SeO5)2,0.5277999999999999
Rb2Pd,0.5281
TiPN3,0.5281999999999996
MgHg4(WO4)2,0.5286
Tm10S19,0.5289000000000001
Mg149In,0.5289000000000001
Zn2Cu10Sb4S13,0.5294000000000008
Li4Ti3V3(SnO8)2,0.5294999999999996
SrMgTi(PO4)2,0.5297999999999998
Rb2Pd(IBr2)2,0.5302
Mn7CrO16,0.5307000000000002
SrMg30CrO32,0.5308999999999999
Rb9Fe2S7,0.5308999999999999
Sr11(CN5)2,0.5311000000000003
Tb2Sn3(PbS4)3,0.5314000000000005
Na6Mg16Ta8Si3(S11O48)3,0.5320999999999998
Pr(MoO3)2,0.5323000000000002
Mn5Co3O16,0.5324
LiTi(Si2O5)2,0.5326999999999993
ZnCu(SeO3)2,0.5327999999999999
SbAsIr,0.5328000000000008
Mn3(CoO4)2,0.5335000000000001
NaFePO4,0.5337000000000001
Rb2FeCuF6,0.5338
SrLiLa15(CoO8)4,0.5344999999999995
Na6Mg4Si3Sn4(S3O16)3,0.5345999999999997
Zn3In2O6,0.5347
Th(FeP3)4,0.5348000000000006
NaHo4Ge2O11,0.5349000000000002
Zr2(SeS)3,0.5350000000000001
Na5MnO5,0.5350999999999999
MnSbSe2I,0.5351999999999997
Tl3AgTe2,0.5357000000000003
Li4Ti3V3(TeO8)2,0.5358
V12O29,0.5361
Si2Bi13(SbO14)2,0.5369000000000002
Li4V4(OF3)3,0.5369999999999999
Rb2InSbI6,0.5377000000000001
Rb2Te2O2F7,0.5386
Sr9NdFe5(MoO6)5,0.5386000000000006
SbAsRh,0.5387000000000004
Na5Fe3F14,0.5391
SrNdFeO4,0.5392000000000001
MoS2N2Cl5,0.5402
MgCo5SbO12,0.5405000000000002
Y2Sn3(PbS4)3,0.5405999999999995
Sr3CdO4,0.5407
Rb3NaMg(RuO4)2,0.5409000000000002
Nd2Sn3(PbS4)3,0.5412999999999997
MnV2Fe3(PO4)6,0.5415000000000001
MgV4O7F5,0.5419
NiH15IO12,0.5421
Zn(SbO3)2,0.5421999999999993
RbSb,0.5423
SbSO6,0.5424
Li6FeCo3(PO4)6,0.5425000000000002
Tl3In5Se8,0.5433000000000003
Li4V2Fe3Sb3O16,0.5435999999999996
Sm3Sb4Au3,0.5435999999999996
NaMgMn4O8,0.5442
SrCuH3ClO3,0.5446
Mn3As2H26(S4N5)2,0.5449000000000002
RbMg14GaO16,0.5449000000000002
Li5Ti(SiO4)2,0.5455000000000005
NbTe7Br5O,0.5461
VCu3(TeSe)2,0.5462000000000002
MnCr4CdSe8,0.5468999999999999
Rb2PdBr6,0.5478999999999999
Na7Al11Si13(AgO12)4,0.5483
Li5Mn(SiO4)2,0.5485999999999999
Li9Co15O28,0.5489000000000002
Li6P6H8O23,0.5490999999999999
MgCrCoS4,0.5492999999999997
Ta2ZnCuO7,0.5494
NpB3O8,0.5495
Na8Fe7(PO4)8,0.5495999999999999
MoW2(SeS2)2,0.5496999999999999
Ta3TeI7,0.5502000000000002
Na2Fe3(PO4)3,0.5505
MnAlO3,0.5506000000000002
PAuS,0.5507999999999997
SrZrS3,0.5511999999999997
Li4Ti3Mn4(FeO9)2,0.5512000000000001
Li4V5CuClO15,0.5515
Tb2Te3,0.5516999999999999
NaFe3(PO4)3,0.5517999999999996
LiZnAs,0.5518000000000001
NaNp(HO2)2,0.5518999999999998
Mo3W(SeS)4,0.552
SbTeRh,0.5520999999999994
Li4V3Cr2Co(PO4)6,0.5522
Rb2TlAgF6,0.5523
Sb2AsS2,0.5524000000000004
LiV2FeO6,0.5526
Pr6Mn(GeS7)2,0.5528000000000004
Mn(BiTe2)2,0.5528999999999993
Rb2LiTlBr6,0.5529
Li5Co5O9F,0.5529000000000002
MgMn5SbO12,0.5539000000000001
RbGeI3,0.5540000000000003
Li4Ti2V3Fe3O16,0.5540000000000003
LiV3O8,0.5543999999999999
NaCd4(GeO3)5,0.5545
Sr5V3O13,0.5547
SnTe(PbS)4,0.5550000000000006
RbAlV(PO5)2,0.5551999999999999
Sr2GaCuSO3,0.5552000000000001
Na2Mg4SiGe4S11O48,0.5554000000000001
Li5Cr6P5O24,0.5554000000000006
TlGaTe2,0.5555999999999996
Sr2CdN2,0.5562999999999998
Mg4Mn9O13,0.5563000000000002
Lu4MnS7,0.5564999999999998
Sr3V2O7,0.5565000000000002
Li8Mn3Cr(PO4)6,0.5567000000000002
TaI4,0.5572000000000001
Sb2Pt2O7,0.5572999999999997
LiAcTe2,0.5574000000000003
Rb2CoI4,0.5574999999999999
ZrSeS,0.5579999999999998
MgV5CuO12,0.5580999999999996
ReTe7O7F32,0.5589999999999999
Li4Ti3V3(FeO8)2,0.5590999999999999
SrLaFeO4,0.5591999999999997
Y2Te3,0.5592999999999995
Rb2NiAs2,0.5596999999999999
Na6Mg2Si5Ge6S7O48,0.5599000000000003
MnZnNiP2O9,0.5607000000000002
TbB4W,0.5609000000000002
TlGaSe2,0.5609999999999999
Na2AgF4,0.5612999999999999
Rb2CuH12(SeO7)2,0.5613
Na2Mg4SiSn4S11O48,0.5614999999999997
Mg149Au,0.5615000000000001
SrCo2(PO4)2,0.5616000000000003
Mg30SiSnO32,0.5617999999999999
Mo3(Se2S)2,0.5618999999999998
Li4Ti2Mn3(Fe2O9)2,0.5619000000000001
Na12Mn3S6(O3F)8,0.5619000000000001
LiBi2(SO4)3,0.5619000000000001
RuCl(OF3)2,0.562
Sn5(GeN3)2,0.5625
TaTe4I,0.5627000000000004
Zr3N4,0.5628999999999995
SnH6CI3N,0.5633000000000001
Tl5Se2Cl,0.5641000000000003
RbSm2CuSe4,0.5642999999999998
Te8MoW3,0.5643000000000002
Ti2Fe4O9,0.5643000000000002
SrCaEuWO6,0.5645999999999995
TiBrN,0.5646
TbB4Mo,0.5646000000000004
Sr2YAlNi2O7,0.5647000000000002
Li4Nb2Fe3Co3O16,0.5650999999999997
Ti5Fe11O24,0.5652999999999997
V8O15,0.5660999999999996
Y7(CuTe4)3,0.5665000000000004
NaV5MoO15,0.5666
MgMn2CoO6,0.5667999999999997
UH14Cl3O7,0.5669
V5Fe3O16,0.5670999999999999
Li4TiMn4(Fe2O9)2,0.5678999999999998
Rb3Sn4Au,0.5680999999999998
Li4V3Fe5O16,0.5682
RbNa2Sb,0.5682
Sn3(AsO4)4,0.5682999999999998
Sc2CI3,0.5682999999999998
RuSeS,0.5688000000000004
YB4W,0.569
Rb2U(Si2O5)3,0.5691999999999995
Pr2InCuSe5,0.5693000000000001
RbSm2CuS4,0.5694999999999997
RhF3,0.5699000000000001
PRuS,0.5699000000000005
RbBi3Se5,0.5703
LiMg149,0.5707
Na2PrSiO5,0.5707000000000002
SrZrNbInO6,0.5707000000000004
Rb2Te2Pd,0.5711000000000004
Tl2O,0.5717000000000003
Lu2PdO4,0.5717999999999996
SnO2,0.5726000000000004
Ti3Cu2Sn(PO4)6,0.5726000000000004
Sr4Pt4PbO11,0.5728999999999997
Mg5Fe19O32,0.573
Na2LiTlBr6,0.5730999999999999
LiFe2F9,0.5731999999999999
Na10EuSn12,0.5731999999999999
Nb2Tl3CuSe12,0.5732000000000004
Zn3Si4(AgO7)2,0.5735999999999999
RbCuPdSe5,0.5742999999999996
MgFe4(HO2)4,0.5749000000000004
ZrTiS6,0.5749000000000004
Y3Sb4Au3,0.5752000000000006
Sb(IF3)2,0.5754
Zn3Cu3(AsO4)4,0.5754000000000001
Sr2YGaNi2O7,0.5754999999999999
Na7Fe4(AsO4)6,0.5758000000000001
Sr2FeWO6,0.5759999999999996
V12Cu2O29,0.5762
Zn2Fe9O13,0.5763000000000003
ZnGaAsSe,0.5764
SbN6Cl,0.5765
LiV4(GeO4)4,0.5766999999999998
Sc2ZnS4,0.5768
NiH6(BrN)2,0.5768000000000001
Lu3Sb4Au3,0.5770999999999997
Nb3SI7,0.5787
LiCaBi,0.5790000000000002
Tb2S3,0.5792999999999999
Ti3V2Ni(PO4)6,0.5794999999999999
ThPbI12,0.5799999999999998
Sr2H5Rh,0.5802999999999998
Sm2CuTe4,0.5808
UBr5,0.5817
Zn2Fe7O12,0.5819999999999999
Sr2CaZn2Sn2(PO4)4,0.5824999999999996
Tl2PtI6,0.5825
NaSnP,0.5826000000000002
MgCuAsO5,0.5827
LiMnH4(SO5)2,0.583
LiCu(PO3)2,0.5838999999999999
RbVBr3,0.5839000000000003
Li5Mn3(CoO5)2,0.5842999999999998
Sr2CuH2(SeO3)4,0.5843
MgCrGaS4,0.5845999999999996
Sr4As3,0.5853000000000002
Zn7SiN6,0.5856000000000003
VCrO4,0.5874000000000001
Re2SCl12,0.5876000000000001
Lu2Te3,0.5877999999999997
RbAs,0.5879000000000001
Li5Co7O16,0.5879000000000001
SnH5CI3N2,0.5880000000000001
NaLaV4O12,0.5880000000000001
Na2Pr4Cl9O2,0.5886000000000005
Li4NpO5,0.5886000000000005
SrHfNbInO6,0.5890000000000004
Sr3(InP2)2,0.5893000000000006
MgTe4Pb6(BrO3)4,0.5894000000000004
PdCl2,0.5895
Li5TiP3,0.5897999999999999
Li5MnOF5,0.5905000000000002
NaAgO2,0.5911
TiFe11O16,0.5914000000000001
Pr4NiS7,0.5918000000000005
Tm2Sn3(PbS4)3,0.5920000000000005
MgCu2P2O7,0.5922999999999998
Na5GeAs3,0.5931000000000002
Pr3CBr5,0.5933999999999999
SrSm3(NiO4)2,0.5934000000000004
Li3VCrP2(O4F)2,0.5934999999999997
RhF6,0.5939999999999999
Zn2In2O5,0.5941000000000001
Mn2TeO6,0.5941999999999998
RbFeI4,0.5942000000000001
LiFe5O8,0.5947
NbTeBr3,0.5947
Mg2CrCo3S8,0.5947999999999993
TaTlS3,0.5957999999999997
Rb2V(OF2)2,0.5958000000000001
Na4MnO3,0.5962000000000001
Li9Si2Ni5O16,0.5962999999999998
Te6MoW2,0.5968999999999998
Re2P2O11,0.597
Mn2V2O7,0.5970000000000004
Si7NiN10,0.5976999999999997
ZnCdSeS,0.5978000000000001
MgTl4(MoO4)2,0.5981000000000001
ZnGe3P2(SO6)4,0.5982
NbI5,0.5982999999999998
Li5Mn2NiO8,0.5983
Sn5Sb2S9,0.5992999999999995
SrCu2GeSe4,0.5996000000000001
TmCu(BO2)5,0.5997000000000003
ZrSeO,0.5998000000000001
Nb3CuO8,0.5998000000000006
Li4V7(PO4)6,0.6002000000000001
RbSnBr3,0.6010000000000002
SmBiO4,0.6012
NaW6NCl18,0.6013000000000002
PrRhO3,0.6013000000000002
Mg6MnZnO8,0.6013999999999999
LiTiMn3O8,0.6014000000000002
MgMn3HO6,0.6017000000000001
Nb3O2F5,0.6020000000000001
PdF4,0.6028
MgCo4(NiO6)2,0.603
Mg11(CN5)2,0.6030999999999995
MgFe4(PO3)12,0.6032000000000002
NaAcTe2,0.6033999999999997
Li4Ti3Mn3(NiO8)2,0.6036999999999999
Sc2V2O7,0.6038000000000001
NaSb,0.6041000000000003
MoSeS,0.6042000000000001
Sr3CoSb2O9,0.6048
Re2Te5,0.6052999999999997
Li3Sb11S18,0.6052999999999997
Lu2CuTe2(SO7)2,0.6058000000000003
Pr5(CBr4)2,0.6061000000000001
Sr3FeCo(ClO2)2,0.6061000000000001
Na2Cu(NO3)4,0.6062000000000001
Li7VAs4,0.6063000000000001
NaO3,0.6064
MgCoSb2O7,0.6067
Si3P2Pt,0.6067
Rb2Cu3(P2O7)2,0.607
Mn5O9F,0.6072
ZnSi(AgO2)2,0.6074999999999999
Na15Cr7N19,0.6076999999999999
SrSnN2,0.6092999999999993
Sr7PbN6,0.6106000000000003
Na2NiAsCO7,0.6108000000000001
Tl9BiTe6,0.6109
Y(CoO2)3,0.6111
Na2Ca3Ti(SO4)6,0.6113999999999999
ZnCrAs2O7,0.6116000000000001
Mn2O2F9,0.6117000000000004
LiVPO4,0.6118999999999994
Na2Sr3P4,0.6118999999999999
ZrTlCuS3,0.6120999999999999
YMg14NiO16,0.6124999999999998
YCu(WO4)2,0.6125999999999996
SnGe4Te4Se,0.6132999999999997
RbLi2Ni2(BO3)3,0.6137
Na14Mg6Si5Sn2S7O48,0.6141999999999999
LiCu2BP2(HO5)2,0.6144000000000001
ScTlSe2,0.6146000000000003
Na3CuB8H17O23,0.6148
Mg30CrCoO32,0.6154000000000002
Mn5(SeO3)8,0.6155
Li4V3Co(PO4)4,0.6162999999999998
Mg2Fe2O5,0.6162999999999998
LiTiSi3O8,0.6163000000000007
MnTl2As2S5,0.6165999999999996
Sr4Sm2MgTa2O12,0.6167000000000007
NaMg(CoO2)3,0.6172
Tl2V(SO5)2,0.6174
Rb3TlI6,0.6175999999999999
Na2Cu(PO3)4,0.6175999999999999
RbAg2SbS4,0.6177999999999999
NaZr2AgF11,0.6180000000000001
LiCuS,0.6182000000000007
Li6Mn3Co(PO4)6,0.6188
Na3BiO4,0.6188
Y2ReO5,0.6190000000000002
Na2Zn4SiGe4S11O48,0.6192000000000002
PtSe2,0.6193
Li5VCr3O8,0.6195000000000004
TiV3(PO4)6,0.6197999999999999
SrLi2CrN3,0.6200999999999999
SrCaNbWO6,0.6203000000000003
MgSnO2,0.6204000000000001
ZnCu(Si2O5)2,0.6206
Mn(WO4)2,0.6212999999999997
TePb2Se,0.6213999999999995
Sr2SbAu,0.6225000000000005
Sr2Zn3(AsO)2,0.6225999999999998
VCuN2,0.6232000000000006
Mg14MnCoO16,0.6232000000000006
NaCd2(GeO3)3,0.6238999999999999
Na2Ni2O5,0.6238999999999999
Rb2InAsBr6,0.6249
NaNbS2,0.6250999999999998
Sn2SbS2I3,0.6252000000000004
Zn(Fe2O3)2,0.6253000000000002
SrAlSiH,0.6256999999999993
Na6FeO4,0.6261000000000001
Li6Mn3P8O29,0.6261999999999999
Mn2HgO4,0.6263000000000001
MgCu3(MoO3)4,0.6265999999999998
LiZr4(NCl)4,0.6265999999999998
Na2Zr(SiO4)2,0.6265999999999999
Rb7Au5O2,0.6267999999999999
NbSeI3,0.6270000000000002
Sr16V12O39,0.6273000000000004
Pb3BrO3,0.6278000000000001
UAg2(WO5)2,0.6278999999999999
MnTlH2OF4,0.6279000000000001
Na2CuBSO7,0.628
VSO4F3,0.6280000000000001
W2Se3S,0.6281999999999999
Na6Mg8Ta4Si3(S5O24)3,0.6286
Sr11LaFe6(MoO6)6,0.6286999999999994
LiTiCoO4,0.629
Mg2Ta2WO8,0.6292
Na4Co9(MoO4)12,0.6292999999999999
Na2Li2CoO4,0.6293
Li4Ti2V3O10,0.6295999999999999
Li3VCr(P2O7)2,0.6295999999999999
NaEuBiWO6,0.6296999999999997
MgZn2Co2(SiO5)2,0.6298999999999999
SnWO4,0.6301999999999999
MgMnV5O12,0.6304000000000003
ThSe2,0.6304999999999996
LiFe3(SiO4)2,0.6305999999999998
Zn2PtO4,0.6309
Mn5NiO12,0.6309
Li5MnO3F,0.6309999999999998
Mn13Cr3O32,0.6313000000000001
Na4Ca2SiAs4,0.6318999999999999
UPCl10,0.6319999999999999
Mg(CrSe2)2,0.6322000000000001
NaNpH2SeO7,0.6335000000000002
LiV6O11F,0.6340999999999997
Ru2SeS3,0.6341000000000001
Mg(BeP)2,0.6341000000000001
Na3Re2N5,0.6341999999999999
Mn2NiO6,0.6342000000000001
TaPS6,0.6343999999999999
RbSm2Br5,0.6343999999999999
Mn15NiO32,0.6348999999999999
Rb2MnO4,0.6351
Sc2S3,0.6353
RbVGa(PO5)2,0.6353000000000001
Li4V2C4SO16,0.6354
Nb2Te6I,0.6360999999999999
LiCr2P2O9,0.6364999999999998
Li7RuO6,0.6366
MgCo2(AgO3)2,0.6367000000000003
SiAg2O3,0.6373000000000002
Sr2AlV11O22,0.6374000000000004
Li6V3Sb3O16,0.6381000000000001
Tl2Te3,0.6388999999999996
NdTmS3,0.6389999999999998
PrErS3,0.6393
Li3V5O10,0.6398999999999999
Tb2CuH4(SO6)2,0.6404000000000001
MnNi3O4,0.6421000000000001
Na2MnAsCO7,0.6423
Na3InP2,0.6425999999999998
ReH12C2S2N4Cl5O3,0.6434
Na2SbAs,0.6434000000000002
Li4Nb(P2O7)2,0.6434000000000006
Nd4NiS7,0.6435
Na4Y2Si3Ge2(SO8)3,0.6436999999999999
LiCaSb,0.6443000000000003
Sr5Mn4CO13,0.6452
RbHgF3,0.6454
LiBi(BO3)2,0.6456000000000002
Ti(Ag4S3)2,0.6463000000000001
LiCrS2,0.6463000000000001
LiCuO,0.6463999999999999
Li7Fe4(PO4)6,0.6465000000000001
W(S4Cl3)2,0.6466000000000001
TaMnZn2O6,0.6467
Li3V3FeO8,0.6469
Li4Ni3TeO8,0.6478999999999999
Sc4OsCl4,0.6479999999999997
PrTmS3,0.6480999999999999
TlHg3Sb2Br3,0.6482000000000001
MgV5O10,0.6482000000000001
Rb2PrCuF6,0.6482999999999999
Li5Co2(SiO5)2,0.6486999999999999
Na2CuF4,0.6487
NdRhO3,0.6487000000000007
V4OF11,0.6488
ZrSnN2,0.6491999999999996
Mg3Si4(AgO7)2,0.6494000000000004
Na4NpO5,0.6496000000000004
LiMo2(PO4)3,0.6498999999999997
Nd2MnFeO6,0.6502999999999997
Rb4Hg5Te13,0.6505000000000001
Na42Mg16Nb8Si21(S5O48)3,0.6506000000000003
NaTl3S2,0.6507000000000001
Na2Nb2Al2Si3(SO8)3,0.6507999999999998
Mn7(OF3)3,0.6508
LiAlCrO4,0.6509
RuF5,0.6511000000000002
Sm(CuTe)3,0.6511000000000005
MgMn2(SO5)2,0.6512000000000002
Na4(WO3)5,0.6516000000000002
TiNF,0.6517
Th6CBr14,0.6522000000000001
Sn2SeS,0.6523999999999992
Sm2Ni2O5,0.6524000000000001
NaCo2Se2O7,0.6525000000000001
MgCu2GeS4,0.6525000000000007
NaInSn2,0.6527000000000003
ZnCuF4,0.6531
Sr4GeN4,0.6531000000000002
Mn2Cu3H24(OF)12,0.6532
Li6FeCl8,0.6532999999999998
Y5IrBr9,0.6534
Sr4Bi2O,0.6537000000000002
Na2CuAs,0.6542999999999997