formula,band_gap
Na4H6Ru,2.0349000000000004
UAs2H6O11,2.035
Gd2MgPtO6,2.0358
NaSc2Ti2P3(SO8)3,2.0359000000000003
Na3IrF6,2.0362
NiH16C2S3N6O7,2.0363
CaV5H19O23,2.0365
Na6Ca4Nb2P6(SO12)3,2.0369
Li5Fe(P2O7)2,2.037
CsCu2ICl2,2.037300000000001
Ba3V4(PO4)6,2.0379
Y(BiO2)3,2.038
NaNbCl6,2.0380000000000003
Na4MgNbSi2PO12,2.0381
Na3Ca2Nb2P5SO24,2.0381
MgPSe3,2.0382
Rb3TmO3,2.0385
Na30Ca16Ta8Si15(S7O48)3,2.0387
UTl2(MoO5)2,2.0387
Zr4N2O5,2.0388
Rb2Pb2O3,2.0393000000000003
Sb2OF8,2.0393000000000003
Rb3LuO3,2.0394
VAgP2O7,2.0397
K2La2Ti3O10,2.0398
Na3InBr6,2.04
Na2Ta2Ga6Si3(S3O16)3,2.0409
Rb3ErO3,2.0414000000000003
Gd2NbGaO7,2.0419
Na14La4Si9Sn4(SO16)3,2.0421
Sr5U3O14,2.0422
Mg3MnNi3O8,2.0422
Na2Nd2Ti3O10,2.0423
Na6Mg2Nb4Si3(PO6)6,2.0427
V4CrFe3O16,2.0428
VFeMoO7,2.0434
SrFe2S2O,2.0437
Na4YNb3Si5SO24,2.0438
Ba3LaZnReWO12,2.0438
V4Cd9O19,2.0442
Rb2ScAuCl6,2.0443
Na4Mg(BiO3)2,2.0446
Y6Mg(SiS7)2,2.0446
RbMgNiF6,2.0450000000000004
LiP4WO13,2.0451
Na3YGe3(PO4)6,2.0454
Na7MgSbO6,2.0459
Na9Ca11Ta(SO4)18,2.0459
Na5ZnSiGe3P5O24,2.0459000000000005
Na2Hf2Si3Sn2(SO8)3,2.0460000000000003
MgFe2(NiO3)2,2.0460000000000003
Rb5Al(MoO4)4,2.0466
Na4CaTiSi2SO12,2.0466
PrSI,2.0481000000000003
Rb3TlCl6,2.0482
Sr2CeGeO6,2.0483
Na5V12O32,2.0484
Nd6Cd(GeS7)2,2.0485
BaMoF7,2.0489
SbXeF9,2.0494
LiNi2O2F,2.0497999999999994
LiFe(Se2O5)2,2.0499
LiGa4(WO6)2,2.0499
LiZn2AgWO6,2.05
Sr2GeS4,2.0504
Rb2TeBr6,2.0509
NaSbCl6,2.0509
Ca3Fe4(WO4)6,2.051
Mg3V2(Si2O7)2,2.0513000000000003
Na4Zn3SiSnS5O24,2.0516
YInO3,2.0516999999999994
Li5Cr(CO3)4,2.0518
Na7Cr3Co(PO4)6,2.0518000000000005
NaMnF4,2.0519
Pr2MgPtO6,2.0522
PmI3,2.0525
KV5Co(H8O11)2,2.0525
Na2FeSO4F3,2.0527
MgMn2V2O8,2.0534
Sr3Li4(GeN3)2,2.0534
Li3Mn5OF11,2.0535
Ba2MgUO6,2.0537
Sn(GeO3)2,2.0538
VZnAs2O7,2.0539
UH17C10N3O10,2.0539
MgAl4Cr2O10,2.0540000000000003
Li3Fe2(CO4)2,2.0546
Y6Zn(GeS7)2,2.0547
Nd7(S2Cl3)3,2.0553000000000003
TlAsH2F10,2.0555
Sc2SiSn2S5O24,2.0558
Y6Mg(GeS7)2,2.056
MgV3(P2O7)2,2.0561
Na9Mg2Nb4Si6(PO12)3,2.0563
K9Bi(PS4)4,2.0563
Na4Nb3InSi5SO24,2.0564
MgVCrP2(HO5)2,2.0566
Zn(AgI2)2,2.0567
Rb3YO3,2.0568
Ga4GeO8,2.0569
MnCrF5,2.0569
NaGa2Ge2P3(SO8)3,2.057
NaCr(WO4)2,2.0571
Sr2H3I,2.0572
Na5Y2Nb2Si3(PO8)3,2.0582000000000003
Y2NCl3,2.0584
VH26(C3O)4,2.0585
NaSrCrF6,2.0585
Ba2NbBiO6,2.0586
Mg3Fe2(Si2O7)2,2.0588
UH6C2SeN3O7,2.0588
Mg30VNiO32,2.0588000000000006
Na8CaSi4Ge3(PO12)2,2.0589000000000004
Li2CrSn(PO4)2,2.0592
ZnHC4O3,2.0594
Rb2AgBiCl6,2.06
HfSiGe(SO6)2,2.06
K9Fe2O7,2.0603
RuC4(IO2)2,2.0611
Ca(NdS2)2,2.0613
NaUH9(SeO6)2,2.0614
Dy3GaS6,2.0615
Na8NbAl3Si5SO24,2.0616000000000003
Tb4GaSbS9,2.0623000000000005
Na7Mg3TiP5SO24,2.0624
Li6TeN4,2.0625
KSrCeNbO6,2.0628
TlSbCl6,2.063
Na3RhF6,2.0631
V2CoP2(H4O7)2,2.0634
CuW3Br7,2.0638
Na7La2Nb2Si5PO24,2.0638999999999994
RbSbCl6,2.0641
P2Pb8O13,2.0642
Na10NbGa7Si6(SO8)6,2.0642
Ga3Sb7(S4Cl7)2,2.0643
ZrNF,2.0644000000000005
SrFe2(P2O7)2,2.0648
TeH12AuC4S3N,2.065
Na6Y2Nb6Si9(SO16)3,2.0651
Mg7VFeMo15O56,2.0652
Na3FeBAsO7,2.0654
LiGaSe2,2.0656
Co(AsO3)2,2.0657
Ti4FeBiPb4O15,2.0657000000000005
La8Te3SeO8,2.0662
Zn3Ni3(AsO4)4,2.0665
K2Mg(H2N)4,2.0666
Sm6Mg(GeS7)2,2.0667
Cr2H2Pb4ClO10F,2.0672
Na3Ca2Ge2P3(SO8)3,2.0673
Nd2MgPtO6,2.0683000000000007
Ba(LaS2)2,2.0684
U(H2O3)2,2.0684
V3ZnO7,2.0684000000000005
NaCaTi3P3(SO8)3,2.0685
NaTa2Zn2P3(SO8)3,2.0688
Cs2HgO2,2.0689
Li5FeHO4,2.069
Li3W2N5,2.0692000000000004
Bi24B2O39,2.0695
CeZr4O10,2.069500000000001
UH10CSe2(NO2)4,2.0701
TaTl3(SeS)2,2.0701
Na5Mg3SnP3(SO8)3,2.0702
CsV3O8,2.0706
TlFe(SO4)2,2.071
Na10Nb4In4Si9(SO16)3,2.0713
Rb3BiSe3,2.0716
Rb2SnO3,2.0716
Na2NbInSi2SO12,2.0718
V3NiH48(SO10)4,2.0718
C7Cl5,2.0722
Li4Nb2Ni3Sn3O16,2.0723
RbSnAsO5,2.0723000000000003
LiMo2P3O13,2.0726
Na2Ca2Zr2SiS5O24,2.0728
Sr2NiMoO6,2.0734000000000004
BiPbClO2,2.0737
MgV(SiO3)2,2.074
NaMg2Ta2P3(SO8)3,2.0742
VBO4,2.0746
Li3Nb(NiO2)4,2.0747000000000004
BaPrFeSnO6,2.0748
Na8Zn2Ga2Si3(SO8)3,2.0752
Na6NbAl3Si4(SO12)2,2.075400000000001
Ba2LiIO6,2.075600000000001
PPbS3,2.0761
NaAlSiGe(SO6)2,2.0764
MnBePO5,2.0764000000000005
NaSrYSeO6,2.0769999999999995
NbZnP(SO6)2,2.0771
HfTi4(PbO3)5,2.0772999999999997
KInO2,2.0775
TlMo2P3O13,2.0776000000000003
Li4UO5,2.0777
LiFe4(PO4)3,2.0777
Na4SnS4,2.0780000000000003
Li5Br2N,2.0781
Na4Zn3SnP2(SO6)4,2.0781
Na8Mg2Ga2Si3(SO8)3,2.0781
KNa4FeO4,2.0784
Na8Zn3Sn(PO4)6,2.0786
Os3C12(IO6)2,2.0789
Na6Mg4Nb2P6(SO12)3,2.0789
Na3MnPCO7,2.0790999999999995
NaVPO4F,2.0793
SrZnO2,2.0793
Nd4(SiS4)3,2.0794
NaSrDySeO6,2.0798
Li3YN2,2.0798
LiCr3Ni(SO4)6,2.0799000000000003
NaLaTi2O6,2.0801000000000007
Li7PS6,2.0802
MgZn2Co2(PO5)2,2.0802
Sr2LiNb3O10,2.0804
TlPPbS4,2.0805
Nd3FeO6,2.0809
SrSmHfFeO6,2.0815
Na4SrU3O12,2.0816
Ga10Si2O19,2.0817
Ta2Mn(P2O7)3,2.0819
Na2Sc6Ta2Si3(S3O16)3,2.0821
K2H12Ru(SO7)2,2.0821
Mn(IO3)2,2.0822
K2TiCl6,2.0826
ZrTi2(PbO3)3,2.0831
K2LiIrF6,2.0832
K2O2,2.0834
Ca(SmS2)2,2.0834
Li2Bi5B3O13,2.0836
Pr3SiSe2N3,2.0836
Na4SnO4,2.0838
SrCaNbCrO6,2.084
Li2MnF6,2.084
Li4Ti7O16,2.0841000000000003
Na3GaSe3,2.0844
LiBeN,2.0847
Na6Sn2S7,2.0847
SeO3,2.0849
Ta3InSi3(SO8)3,2.0852
UCd2O5,2.0853
Li2VP2HO8,2.0855
Tl3Bi3(PS4)4,2.0856000000000003
Na4Cu2S3,2.0857
Mg2FeBO5,2.0857
MgNi(GeO3)2,2.0863
RbNiW(OF)3,2.0863
Na2MnCl4,2.0864
LiV(Si2O5)3,2.0867
Th10N9F13,2.0872
Sr2MgZnWO6,2.088
Na12Mg2Nb4(SiO4)9,2.0883
RbLi7(NiO3)2,2.0888
Na6Ta2Ga6Si5S7O48,2.0891
Mg2TaBiO6,2.0892
Na2PdF6,2.0894
Na2CaGaP(SO6)2,2.0894
Na4Si2PbSe6,2.0895
YTiP(SO6)2,2.0896
NdMoBrO4,2.0897
Na4CaTa4TiO15,2.0898
Li2P7(H3N)9,2.0905
Na3LaSn3(PO4)6,2.0907
Rb2MnI4,2.091
NaSc3NbP3(SO8)3,2.0914
Na2La2Ti3O10,2.0914
Na7Ca3Nb(PO4)6,2.0916
Na6Y5Nb3(PO4)12,2.0917
TiFe3Bi3PbO12,2.0919
Re2S(ClO2)4,2.0921000000000003
K2Se,2.0925
Rb2LuAuCl6,2.0926
Rb4In2S5,2.0926
TbI3,2.0929
SCl2,2.093
SrTlPS4,2.0933000000000006
VP2Cl7O4,2.0934
SrU(MoO4)4,2.0935
Os6C17S2O17,2.0941
Ho3GaS6,2.0941
Rb2Hg3(GeS4)2,2.0942
Sr2Ti5(Bi2O9)2,2.0943
MnH4(CO3)2,2.0943
Na2YNbSi2SO12,2.0947
MgMo2(Cl4O)2,2.0948
Na24Mg10Ta2Si9(SO8)9,2.095
LiCoPHO5,2.0953
Sr(PrS2)2,2.0955
UVH3O7,2.0958
Na2La2PtO6,2.0958999999999994
TiTl2O3,2.0959000000000003
Na2MgTiP2SO12,2.096
Na6Sc2In2Si3(SO8)3,2.096
Na5TiAl3(PO4)6,2.0961000000000003
TaAgP4O13,2.0967
Dy2Mn(GeO3)4,2.0967
LiMn5P3O13,2.0967
Ba2TiS4,2.0968
Na6Zr4In4Si5S7O48,2.0968
NaSrBiWO6,2.0972000000000004
Na3MgTi3P5SO24,2.0973
SrMg14CdO16,2.0974000000000004
Na14Ti4In4Si9(SO16)3,2.0975
NbInBi2O7,2.0976
Na6U2Mo4O21,2.0982
ReAgO4,2.0985
Na2LaNb3Si2(PO6)4,2.0988
Hg3Te2SeO10,2.0992
SrLa4TiAl4O15,2.1
Na9Mg10Nb2P3(S5O24)3,2.1003000000000003
Rb2AlInBr6,2.1004
Lu(BiO2)3,2.1004000000000005
Na6Ta16Zn8Si15(S7O48)3,2.1006
LiUPO6,2.1007
Li3Si6NiO15,2.1011
TaTl6VS8,2.1011
Nb9AsO25,2.1016
Na2SnO2,2.101700000000001
RbNa2AuO2,2.1025
FeBi6P2(O7F)2,2.1025
Na9MgNb5(SiO4)9,2.1027
Sr(NdS2)2,2.1032
Rb2ZrFe(PO4)3,2.1037
SrSmCrSnO6,2.1038999999999994
NbTl3Se4,2.1041
Ho14(PbS8)3,2.1049
Na3MnAsCO7,2.1050000000000004
NaTiInP2SO12,2.1051
Na3InSi2SnSO12,2.1052000000000004
MgTa2(FeO4)2,2.1053
Sr2P7I,2.1057999999999995
Li2V(SiO3)3,2.1059
BiClF8,2.1059
TlMoPO6,2.106
Na14Ca5Sn3(PO4)12,2.1061
Sr5(ReO6)2,2.1062000000000003
Rb2TmAuCl6,2.1063
Na14Ca4Ta4Si9(SO16)3,2.1064
Na6Mn3(PO4)4,2.1064
Er3GaS6,2.1065
SbC(Cl2O)2,2.1067
Cs3AlI6,2.107
Sm4(SiS4)3,2.1071
Cs2NaBiI6,2.1074
Li6V(OF)3,2.1076
Na6Zn3Si2Sn(SO6)4,2.1078
RbUCrNO9,2.1079
Na6B18Se17,2.1085000000000003
RbLiMn(BH4)4,2.1089
Na8Fe2O7,2.1091
MnNb2O6,2.1096
K3Fe2(PO4)3,2.1097
Na3AlTe3,2.1101
Pb3(NO4)2,2.1114
Re6H12Pb3C2S2(N2O13)2,2.1118
Ba2FeCoClF7,2.1118
V2Fe4Mo3O20,2.1118
MnAsH3O5,2.1119
Na3GaSi3Ge3(SO8)3,2.1122
Na3Sc2(WO4)3,2.1122000000000005
MgAgF3,2.1127
FeH10S2NO11,2.1129
ZrHg4(PCl3)2,2.1134
SrMo2(PO4)4,2.1135
Lu2MoO6,2.1137
ZnGa4S7,2.1138000000000003
Tm2PbS4,2.1140000000000003
Sr3TbRhO6,2.1142
Li9Mn2AlO8,2.1143
Tb2CrSbO7,2.1144
NaSrPrSeO6,2.1145
Li4TiNi5(PO4)6,2.1145
LiV(GeO3)2,2.1146
Na3YSiSn(PO6)2,2.1148
Sr2Li3NbN4,2.1148
Tl2V3O8,2.1152
Na8MgTi3Si5SO24,2.1152
LiCdBO3,2.1156
ReSi2(PO5)3,2.1158
LiVB2O5,2.1161000000000003
Rb4Ge(PS3)4,2.1162
MgVCl2O,2.1164
Sb2XeClF11,2.1165000000000003
Na2SrNd2Ti5O15,2.1166
LiCoBO3,2.1166
Na7Y3NbSi3(PO8)3,2.1166
Cr2(Bi2O5)3,2.1167
Na6Sc2Nb2Si5SO24,2.1168000000000005
Na5In3Si3Sn(SO8)3,2.1169
Na30Ca4Nb20Si33(SO48)3,2.1171999999999995
U2H14S2O19,2.1173
NaMg14WO16,2.1175999999999995
Na6Ca2Nb4Si3(PO6)6,2.1178
Sr9La5I33,2.1183
SrSm2Nb2O9,2.1183
Na12NbZn5(PO4)9,2.1183
MgTi3P2(SO6)4,2.1185
Si(SnS2)2,2.1185000000000005
NaFe(MoO4)2,2.1186
Na(WO3)8,2.1186
Na2Ta4Ga4Si5S7O48,2.1186000000000003
Na2H4Pt,2.1188
Rb6Sn2S7,2.1194
Cs2Li4UO6,2.1196
Li6Ti3P8O29,2.1196
LiVPH2O5,2.1198
La2Ti2SiS5O24,2.1202
Na10La6Nb2Si7S5O48,2.1206
Rb3HoO3,2.1213
LiSbWO6,2.1215
Na4P2H4CO9,2.1219
Li7Ti7Nb5O30,2.1219
MnP2PbO7,2.122
Ca2YBiO6,2.1221
ZnCr6Si2Pb10(O16F)2,2.1226
Na3GaSi2GeSO12,2.1227
Sr3LiBiO6,2.1229
Na4Co7(PO4)6,2.1229
SrMg30MnO32,2.1231
Na15Nb4Zn8P15(SO24)3,2.1233000000000004
Na3YTiSi(PO6)2,2.1235
Te5As2Br4O5F26,2.1236
Na42Ca20Ta4Si15(S7O48)3,2.1238
Ba2CoGe2O7,2.124000000000001
OF2,2.1241
Na4La3NbSi3(SO8)3,2.1242
Th(NF2)4,2.1245000000000003
Na4FeNi(PO4)3,2.1249
K6Pb2O5,2.1249
NaTiAlSi(SO6)2,2.125
LiVOF4,2.1252
Cs2KGaBr6,2.1255
Mg2SnS4,2.1256000000000004
NaMo3(PO7)2,2.1258
BaMnV2(AgO4)2,2.1259
RbBiO2,2.1259
Na42Mg8Nb16Si33(SO48)3,2.1263
Rb2ErAuCl6,2.1263
Li7NbS6,2.1263
Na15Ca4Nb8Si9(PO8)9,2.1264
SrSn(PO4)2,2.1264
SrMg2(GaN2)2,2.1265
Rb2Li4UO6,2.1266
Na6Nb2Zn4P6(SO12)3,2.1268
Li4Fe5P6WO24,2.1269
VH5Se2NO7,2.127
Li6PS5Br,2.1276
Na3YTi3(PO4)6,2.1279
Ho6Mg(GeS7)2,2.128
Rb2GdAgCl6,2.128
P3S3N6F5,2.1283000000000003
Na6In2Ga2Si3(SO8)3,2.1285000000000003
Rb2LiCeI6,2.1287
Te2S4(NCl3)3,2.1287000000000003
Na3Ca2Ti2P3(SO8)3,2.129
Na4Sn2Ge5HO16,2.1290000000000004
Li5FeO4,2.1293
Li5W2O7,2.1295
Na9Ca4Nb8Si3(P5O24)3,2.1303
Mg3Si3(WO6)2,2.1308
Cs3Cu2Br5,2.131
V5H18N3O17,2.131
Ni(XeF7)4,2.1312999999999995
Li3VSi2O7,2.1313
Na8Zn2In2Si3(SO8)3,2.1314
LiFe3P4O15,2.1315000000000004
LiCaGaN2,2.1319
Na5Zn2Sn2P5SO24,2.132
SnHg6(P2Cl3)2,2.1321
Na6Hf4Si7Ge4S5O48,2.1322
UH3CO6,2.1322
LiVCSO7,2.1325
YPS4,2.1327
Na3U2H5(Se2O9)2,2.1328
RbMo3(PO7)2,2.1328
Na8Ti3ZnSi5SO24,2.133
Na2Y2In2SiS5O24,2.1331
Sr2P7Br,2.1331
Na4MgTi3(PO4)6,2.1332000000000004
NaAuF4,2.1333
Os4C12SO12,2.1335
Sr3DyRhO6,2.1335
Na2NbGa3P4(SO12)2,2.1337
Zn3MoN4,2.1347
Na4UC3O11,2.1348000000000003
Na4SnH32(SeO4)4,2.1349
Na3SbO4,2.1351
CsV2P5O16,2.1352
Na7ZnSi3Ge3(PO8)3,2.1356
Rb3P3H5N,2.1356
Sm2SeO2,2.1358
TlBi25O39,2.136
Na5Y2Ti2SiP5O24,2.1362
NaCoSO4F,2.1368
Na2CaNb(PO4)3,2.1369
Mg3Mn2(Si2O7)2,2.1371
Li3MnV(P2O7)2,2.1375
Li6PS5Cl,2.1375
LiFeBO3,2.1375
Na2Co5Mo4(ClO4)4,2.1376
NiP2H21C7Cl,2.1377
LiNiPO4,2.1377
Na3GaSi3Sn3(SO8)3,2.1377
Na6Sc2Nb6Si9(SO16)3,2.1379
MoBr2,2.138
Ta6Mn2Zn3O20,2.1380000000000003
LiCr(Si2O5)2,2.1385
SrThBr6,2.1387
ZrMn2Ag4(MoO4)6,2.1388
Na3MgGe3P5SO24,2.139
KV(SO4)2,2.1392
VAs2H4O9,2.1392
Na30Ca8Ta16Si27(SO16)9,2.1396
Mg(B6C)2,2.1397000000000004
BaDy2NiO5,2.1398
TlCd(NO2)3,2.1399
TlHg6S4Br5,2.1407
Nb4AgBi5O18,2.1408
RbUSO6F,2.141
Na5MgSiGe3P5O24,2.1412
SrNbCrSnO6,2.1416999999999997
RbFeP2O7,2.1417
Li6Mn11(OF12)2,2.1418
TcC4IO4,2.1419
Ta3NO6,2.1419
NiB4O7,2.1423
MgZn2(FeO3)2,2.1423
SmBS3,2.1425
Na4ZnGe3(PO4)6,2.1426
NaCaMg3Fe6(PO4)9,2.1426
Na7CaSi3Sn3(PO8)3,2.1426000000000003
TlPbI3,2.1427000000000005
NaVBP2H3O10,2.1429
Li7Bi(BO4)2,2.143
SrPSe3,2.1432
SrNdCrO4,2.1432
Na3Sb3(PO7)2,2.1435
SbCNCl4O,2.1439
NaSrCeNbO6,2.1442
SbI3,2.1446000000000005
ZrFeP3PbO12,2.1449
Rb2ScAgI6,2.1449
V3Zn2FeO11,2.145
Na12Ta2Zn10Si3(S5O24)3,2.1450000000000005
LiMnPO4,2.1454000000000004
TlSb(PS3)2,2.1459
MgZr2H10(S3O14)2,2.1461
YPtF7,2.1468
Na10Mg4Ga4Si3(S3O16)3,2.147
Na6Nb6Al2Si9(SO16)3,2.147
Rb2TiCl6,2.1471
Na6Y4In4Si3(S3O16)3,2.1472
ScBiO3,2.1479
Sm3Sc2(FeO4)3,2.1481
Na3Nb4Zn8P3(S5O24)3,2.1486
Ho2MoO6,2.1491
Ba4CrGa2(S3F2)2,2.1491
TlGaO2,2.1494
Sr(InS2)2,2.1496
NaFe(TeO3)2,2.1497
NaAlSe2,2.1497999999999995
Sr2CoGe2O7,2.1500000000000004
TlSbO3,2.1502000000000003
ReBi9O17,2.1502000000000003
Cs3U2PO10,2.1503
Y3Ga(FeO3)4,2.1509
Sr3YRhO6,2.1512
LiSbP(OF3)2,2.1513
ZnSn3(P2O7)2,2.1513
PH3CS3,2.1513
Na10Nb4Al4Si9(SO16)3,2.1516
Na8NbAl3Si4(PO12)2,2.1516
Na2YSn(PO4)3,2.1517
Cs2UP2O9,2.152
Tl4V5CdClO15,2.152
SrCeO3,2.1521000000000003
LiNO2,2.1521000000000003
Na9Sr2Nd9Ti20O60,2.1522
LiFe2P5O16,2.1522
SnF4,2.1529
MgZn2(WO4)2,2.1532
TlV2AgO6,2.1533
Na2NbIn3P4(SO12)2,2.1537
Rb10NaAl11Si13O48,2.1539
OsC3IO3,2.154
CsDyZnSe3,2.1541
RbU2H5C4O15,2.1541
Re(TeCl2)2,2.1542000000000003
PrMoBrO4,2.1545
Na6Ca7Ge(SO4)12,2.155
Rb2Nb3Cl7O5,2.155
Na6Si2Se7,2.1551
Na3ScI6,2.1552
BaGe7N10,2.1552
Nd4InSbS9,2.1557
Li3VOF5,2.1558
Na10Sc6Nb2Si7S5O48,2.1568
PbI2,2.1569000000000003
Ba3UO6,2.1572
ZrSO6,2.1577
Na6ZnS4,2.1581
ZnSn(SO4)3,2.1581
Li5ReO6,2.1583
Sr2Li3TaN4,2.1584
LiS4,2.1585
Nd2Zr8O19,2.1593000000000004
NbGaSi(SO6)2,2.1598
Sr3HoRhO6,2.1602
Zn4SiTePbO10,2.160200000000001
CaCr2(PO4)2,2.1606
NaLa3NbP3(SO8)3,2.1606
Cd5P3ClO12,2.1606
KCr12Si8ClO28,2.161
P2WO7,2.1610000000000005
Pr3AsS5Cl2,2.1611
NaFeP2O7,2.1612
Na5Sc2Ti2SiP5O24,2.1622
Li7Fe4P9O32,2.1625
Rb3AsI6,2.1626
Rb4SnO4,2.1626
ReTe5O6F25,2.1627
NbPO5,2.1631
Tl2TeBr6,2.1632
SrMg14FeO16,2.1632000000000007
NaLi3Fe4(SiO3)8,2.1634
Cs2LiV3F12,2.1634
Pr4GaSbS9,2.1638
Pr4InSbS9,2.1642
Li5Fe(Co2O5)2,2.1644000000000005
VIn(SeO4)2,2.1645
NaTi3ZnP3(SO8)3,2.1645000000000003
SrCa3(SnO3)4,2.1647
V2Se3O11,2.1647
RbFe(SO4)2,2.1651
BaPSe3,2.1651
Sr3Sn2O7,2.1652
Na5LaNb3Si5PO24,2.1656
LiMnH6O7,2.1661
RbSnIO6,2.1663
Ti5Bi4(PbO9)2,2.1665
Rb6U2W4O21,2.1665
Sr(H2N)2,2.167
CaCo2Te3(ClO4)2,2.1672
BaPr2NiO5,2.1674
TaGaBi2O7,2.1677
Na2LiIrF6,2.1677
Rb4UC3O11,2.1678
Na10Ga4Si7Sn4S5O48,2.1678
Na6Nb6In2Si9(SO16)3,2.168
MgNbP(SO6)2,2.1681
Li4Ni3O3F4,2.1682
KUSiHO6,2.1688
Na3Fe(BO3)2,2.1688
ZnCd(GaS2)4,2.1691000000000003
Na6MgTi7(PO4)12,2.1693
TiInP(SO6)2,2.1697
Na10Nb2In6Si7S5O48,2.1699
Li9Cr2(H9O7)3,2.17
SrCa3Ti4O12,2.1700000000000004
Dy2S2O,2.1701
Te6As4C3(NF8)3,2.1702
NiSeO4,2.1705000000000005
Na3Fe(PO4)2,2.1706000000000003
Na2V2CoH4(OF)6,2.1708
Sb2C3OF18,2.1709
LiLu2W2(ClO4)2,2.1712
Rb2LaCuCl6,2.1713
Sr2CoSe2(ClO3)2,2.1714
NaTiGaSi(SO6)2,2.1717
NbAlSi(SO6)2,2.1717
NbTeCl9,2.1717
Na3Mg5Ta(SO4)9,2.1718
Na4H8PdPt,2.172
TaVO5,2.172
Rb4PbO3,2.1723
SrSmFeSnO6,2.1723
Na4H2RuN6O13,2.1724
Na4YTiSi2PO12,2.1725000000000003
LaBN2,2.1728
Na2Ta5Al3Si6(SO8)6,2.173
Dy2Zr8O19,2.1735
LiCa2Ta3O10,2.1736
V4CoNiO12,2.1736
TbPtF7,2.1737
Na6NbIn3Si4(SO12)2,2.1739
Na4CO4,2.1739
Na2Ta5Ga3Si6(SO8)6,2.174
NaTi2Ge2P5SO24,2.1742
MgV(CO3)2,2.1744
TiPCl9,2.1747
Na2UP2O9,2.1752
LaSI,2.1752
Sm4InSbS9,2.1754
Na3AgS2,2.1755
VHgO3,2.1756
Na6Mg(SbO4)2,2.1759
Li8FeO5F,2.1762
RbCrCoF6,2.1763
Na3Fe2(PO4)3,2.1766000000000005
Na3Nb2In2SiP5O24,2.1767000000000003
NbTlCl4O,2.1768
Rb3GaBr6,2.1773
Te(WO4)2,2.1774
As4Pb8Cl6O11,2.1775
TlCdI3,2.1776000000000004
RbGeSbO5,2.1777
Na3CrBAsO7,2.178
V2Ni2O7,2.1782000000000004
Na12Ca2Nb4(SiO4)9,2.1783
NaH6BrO5,2.1786
SrMg6NiO8,2.1786000000000003
Ti4Nb(BiO3)7,2.1789
Tb6Mg(GeS7)2,2.1789
LuPS4,2.179
YBi(OF)2,2.1794
Ni4P2O9,2.1794
Rb2NbAgS4,2.1794
Li4VF6,2.1795
Na15Ca8Nb4P15(SO24)3,2.1798
V6H2Pb4Se3O26,2.18
Na3Ca2Nb10Si3(P5O24)3,2.1801
Sr3Fe2TeO9,2.1802000000000006
Na2Ta4Si7Ge4S5O48,2.1804
K10Zn4Sn4S17,2.1804
Na6Y3NbSi4(SO12)2,2.1808
AlGa3N4,2.1808
NaSm3GeS7,2.1816
Na4Mg3SnP2(SO6)4,2.1816000000000004
MgMnRe2(HO5)2,2.182
Na7Zn3Ga(SiO4)4,2.182
LaTiP(SO6)2,2.1823
Sr4Li2Si4N8O,2.1827
Rb3RhF6,2.1829
Zr(InBr3)2,2.1831
NaLa2Nb2P5SO24,2.1832
BaThBr6,2.1838
UMoO6,2.1839
Li5Ni2O2F5,2.1843000000000004
Nd4GaSbS9,2.1846
Mn2Te3O8,2.1851
Ti2Al2SiS5O24,2.1852
Na9CaNb5(SiO4)9,2.1857
Na3Fe2(AsO4)3,2.1857
Na9Nb2Zn10P3(S5O24)3,2.1866
Na6Ti3ZnSi2(PO6)4,2.1868
SrVPO6,2.1868
SrHgO2,2.1871
PrPaO4,2.1871
Na6In4Ga4Si3(S3O16)3,2.1875000000000004
MnFe2Pb8F24,2.1876
ThV2O7,2.1877
Na4CaFe4(PO4)6,2.1879
Pr7(S2Cl3)3,2.1879000000000004
SrV2(CoO4)2,2.1884
Na6NbGa3Si4(SO12)2,2.1889
SrVClO3,2.189
Rb2DyAuCl6,2.189
Na8MgTi3Si4(PO12)2,2.1894000000000005
Nb2Zn2FeO8,2.1897
H4I3NO9,2.1899
Na2In2GeS6,2.1907
NaLi5Ti3Cr3(PO4)9,2.191
Sr5W3O14,2.1914
Sc11Nb3O24,2.1915
TiP3WO12,2.1916
Na7Ti3ZnSi3(PO8)3,2.1916
NaMg6GaO8,2.1919
Sr3ErRhO6,2.192
Na9Mg5Ta7Si9(SO8)9,2.1924
Tl4SnI6,2.1924999999999994
CaHN,2.193
Na6La2Nb2Si5SO24,2.193
TlH4NCl4,2.1932
ZnAgPS4,2.1934
LiCa4(BN2)3,2.1934
MnH4(C2O3)2,2.1937
K4Na2TeO6,2.1937
Zr5Si6H36C12(Br10O3)2,2.1937
Rb4(BSe)9,2.1943
Na5Mg2Sn2P5SO24,2.1945
RbPbCl3,2.1948
SrCr2O7,2.1955
Na10Nb6Al2Si11SO48,2.1956
Mn4Zn3H10(CO8)2,2.1956
Li4V3P4O15,2.1958999999999995
Sr4PtO6,2.1959
Rb2Mn2(MoO4)3,2.1965
SiSn2(SO6)2,2.1966
Ta3(OF)5,2.197
AlTlO2,2.197
Na6Ga8Si3(S3O16)3,2.197
K3Ta2Ag3S8,2.1972
Na3YTi3Si3(SO8)3,2.1974
NaCaGdSeO6,2.1974
Ti3ZnP2(SO6)4,2.1975
AlH3,2.1977
MoPb3Cl2O5,2.1981999999999995
ScInO3,2.1982000000000004
Li3Fe(OF)2,2.1983
NaLaMg6O8,2.1983
Li4V2Si4O13,2.1985
Na2MnCrF7,2.1986
TiSb(PO4)3,2.1986
Zn3Co2(GeO4)3,2.1989
Ca2Nb2SnO8,2.1995
TlCl3,2.1998
MnV2P2(H4O7)2,2.1998999999999995
SbXeOF9,2.2
Pb13(Br3O5)2,2.2003
Ti(SeO3)2,2.2003
Ba3Ta6Fe2O21,2.2006
Y4Si2Ni13(SbO14)2,2.2008
CsAgCl2,2.201
Ru3C9Se2O9,2.2011000000000003
Na6Ta4Al4Si7S5O48,2.2015
Rb3Bi2I9,2.2016
Na5GaO4,2.2018
RbCa2Ta3O10,2.2025
Na8CaSi4Sn3(PO12)2,2.2038
Li2Ni3O3F2,2.204
Na3SbH18S4O9,2.2043
UH4(NO5)2,2.2049
RuO4,2.2052
Li3MnPO5,2.2055
HfNCl,2.2055
V2NiH6(NO3)2,2.206
NaLaNb(PO4)3,2.2063
LiMgN,2.2065
Na8NbGa3Si5SO24,2.2073
Ti(SO4)2,2.2075
CaV3O7,2.2076
Na6MgTi3Si2(PO6)4,2.2076
Na3YNbSi2PO12,2.2079000000000004
LiVF6,2.2085
Na5Zn3SnP3(SO8)3,2.2089
Na14In4Si9Sn4(SO16)3,2.209
NbTlCl6,2.2092
RbUH2SeO7F,2.2095
PrSbO4,2.2095
Sr3YI9,2.2099
Na2MgZr3Si2(SO6)4,2.2099
Nd3Ti12Bi13O48,2.2099
Na7Zn3GeP5SO24,2.2101
Tl3Ga9S13O2,2.2101
Na7Au5S6,2.2102
Rb2TbAuCl6,2.2107
K2Ge2PbS6,2.2113
WSNCl5,2.2114000000000003
Li3P7W5O29,2.2117
TlF,2.2117
BaSr3Zr2Ti2O12,2.212
SbSNF5,2.2126
B11H11C4SI10NF,2.213
Rb2TlIrF6,2.2131
Na4I2O,2.2131000000000003
La2TiMnO6,2.2132
UH6C3SeN2O7,2.2132
Na7MgTi3Si3(PO8)3,2.2132000000000005
Na2LiCu(PO3)4,2.2133000000000003
Rb7SmFe6(P4O17)2,2.2134
Na8CaTi3Si4(PO12)2,2.2134
Sr3UO6,2.2134
LiCo3P3O11,2.2134000000000005
TiSiSn(SO6)2,2.2135
Tl2SO3,2.2137
KBa3Ga5(Se5Cl)2,2.2139
Li3Ni2O2F3,2.2142
Na7Ca3TiP5SO24,2.2144000000000004
NaU2H5C4O15,2.2147
Cs2InSbF6,2.2147
Na3Ti3In(PO4)6,2.2148000000000003
Sr2MgMoO6,2.2149
Cs4SiSe4,2.2151
Na10Mg6Zr2Si3(S3O16)3,2.2158
Sr3PbS4,2.2159
HoCrO3,2.2162
Zn2Ag2(MoO4)3,2.2162
LiVO2F,2.2165
MgSi4WO10,2.217
Sn2PCO6,2.217
Na2Zr4In4Si3(S3O16)3,2.2177999999999995
NaY2Nb2P5SO24,2.2178
YTaSi(SO6)2,2.2181
Li5Fe3Cu2(PO4)6,2.2183
ZrSiGe(SO6)2,2.2184
K4Mo3H4O17,2.2189
YIO,2.2193
BaBiNO5,2.2193
LiV3P3(HO6)2,2.2196
Na3Ti3AlSi3(SO8)3,2.2197
Pr16Si16N27Cl3O14,2.2198
LuPtF7,2.2198
NbCl5,2.2205
Rb2PrAuCl6,2.2207
LiFe3OF5,2.2211
SrHfTiSnO6,2.2211
LiInS2,2.2212
NaGe4P5SO24,2.2212
Na7Mg2SiSn2P5O24,2.2218
Na14La3Nb5(SiO4)12,2.2218
UH6C2O9,2.2221
SbH36S4N11,2.2221
Na2Nb18Tl7(PO8)9,2.2223
Te4O9,2.2225
Na4MgSiSn(PO6)2,2.2228
ScTa3Si3(SO8)3,2.2228000000000003
K2U(MoO5)2,2.2231
Nd4FeS6O,2.2232000000000003
MgSn(SO4)3,2.2233
Y2Cr3(SiO4)3,2.2234
NaCaFe3(PO4)4,2.2236
NaMgTi3P3(SO8)3,2.2241
Na14Al4O13,2.2241
Dy2CrFeO6,2.2242
Li2ThN2,2.2243999999999997
SrCaP2WO8,2.2244
Mg30AlBO32,2.2245
Na8ZnSi4Sn3(PO12)2,2.2245000000000004
Na14Ta4Zn4Si9(SO16)3,2.224600000000001
Sm2HgO4,2.2249
LiFe(WO4)2,2.2249
Rb7DyFe6(P4O17)2,2.2251000000000003
TiH16C4(NCl3)2,2.2255000000000003
ScBr3,2.2256
MgTi(SO4)3,2.2257
Na5Nb2In2Si3(PO8)3,2.2259
Na6Ca3TiP4(SO12)2,2.2259
SrGd2BeO5,2.2259
Na2CeF6,2.226
Na2Y2Sc2SiS5O24,2.2262
Na6Mg3TiP4(SO12)2,2.2262000000000004
VP3(Pb2O7)2,2.2266
RbBa3Ga5(Se5Cl)2,2.2266
MoAs2O7,2.2268
SbTe8Cl6O6F31,2.2268
Li5V4O12F,2.2269
CaZrNbFeO7,2.2273
Na2Mg4Zr4SiS11O48,2.2274
Na2CoCSO7,2.2283
Rb2TiV3(PO6)3,2.2286
NaCaYSeO6,2.229
LiNbP4O13,2.229
Sn2P2O9,2.2294
Ba3Ta2CoO9,2.2294
Li2Fe3(SiO4)2,2.2296
Ti3Bi6WO18,2.2298
LiCr3P4O15,2.2298
KNaMo(OF2)2,2.2299
SrErAl3SiN4O3,2.2302
Na2La4Sc4SiS11O48,2.2303
CaTa2Bi2O9,2.2305
Rb2PdF6,2.2306
Mo6PbBr14,2.2309
V4SnO12,2.2311
Na3Au(SO2)4,2.2312000000000003
Sr8MgZn4(WO6)4,2.2319000000000004
Rb2InSbF6,2.232
Na5Ti2In2SiP5O24,2.2321
LaLuS3,2.2322
V2Co3TePb3O14,2.2327000000000004
LiMoIO6,2.2334
Pb3(IO)2,2.2335
TlBiF4,2.2336
Na12Mg4Nb2Si3(PO6)6,2.2339
KLaZrTiO6,2.2347
TiNbSbO6,2.2347
Na2Sr2Nb4O13,2.2349
NaSrLaSeO6,2.2349
MgH16(IO8)2,2.2356
Sr(LaS2)2,2.2358
Na2AlAgF6,2.2358
Na3VSi4(HO6)2,2.2359000000000004
Zr2Ti3(PbO3)5,2.2361000000000004
Na6U(Mo2O9)2,2.2362