formula,band_gap
Na4InGaSi2SO12,3.1304000000000003
Na14Ta4Al4Si11SO48,3.1307
SrV2(H4O5)2,3.1307
SrNi2Te3(ClO4)2,3.1308
LiSb(SO4)2,3.1309
MgMnSiO4,3.131
Na6HfZn3Si2(SO6)4,3.1313
MoF4,3.1313
Na3As4H5O14,3.1313
RbHo(MoO4)2,3.1313000000000004
Li3Nd3(TeO6)2,3.1314
NdSbMo2O9,3.1318
MoH4C(NO2)2,3.1319
LaIn(SO4)3,3.132
Na4YTa3Si4(PO12)2,3.1321000000000003
NaLiAl4(SiO6)2,3.1323000000000003
KMnPH2O5,3.1331
Na2ScAgCl6,3.1331
Sm3Sb5O12,3.1334
Pb2SO5,3.1338
Li4Zr8V3(P3O16)3,3.1339
Li5La3(SbO6)2,3.133900000000001
ThTe2WO9,3.1343000000000005
TlGeF3,3.1344000000000003
P4SeO6,3.1346
Na2TaNb(SiO4)3,3.1347
Na3TaGaSi2PO12,3.1348
NaZnGa(SO4)3,3.1355
RbNb(BO3)2,3.1355
Sr3Y2(GeO4)3,3.1359
Rb2NaBiBr6,3.136
VH8C2N2O6F,3.1362
Na2ScTa3Si2(PO6)4,3.1362
Na5Ta2Ga2Si3(PO8)3,3.1362
Na2ZnSiO4,3.1365
Na2FeCSO7,3.1371
Sb5PO10,3.1373
Rb2Ti(SiO3)3,3.1377000000000006
Na2Sc8SiS11O48,3.138
Na3Bi(BO3)2,3.1381
Li3Tm3(TeO6)2,3.1382
Rb2NaYI6,3.1384
RbHf2Br9,3.139
SmAg(WO4)2,3.139
InMoHSeO7,3.1396
SrLiPrTeO6,3.1401
Na3TaAlSi2PO12,3.1404
PrH6(CO3)3,3.1406
P2SeO3,3.1407
KNdYSbO6,3.1408
Tb3Sb5O12,3.1414000000000004
NaI3O8,3.1418000000000004
Na2CO3,3.1421
Na4Ta3AlSi5SO24,3.1422000000000003
CaTa5(PO4)9,3.1427
RbSc(WO4)2,3.1431000000000004
Dy2W2O9,3.1434
ScH3Br3N,3.1435000000000004
Na14Y8Si7S5O48,3.1436
Na4AlCr3(P2O7)4,3.1436
Na3FeF6,3.1439
NOF,3.1441
Na4Zr2Ti(CO4)4,3.1442000000000005
Mg2Ta4P6(SO12)3,3.1447
ThV2H4O9,3.1451
LiSb2P3O11,3.1453
NaPr9Si6(SO12)2,3.1455999999999995
NaLaTa(PO4)3,3.146
MgSi4NiO10,3.1467
NaHS,3.1472
Na5Gd4Si4O16F,3.1472
RbSi2H18C6N,3.1473
NdH6SNO10,3.1477
Nd3Lu2(GaO4)3,3.1478
NaIn2P(SO6)2,3.1481000000000003
Na3Al2Ge2P5SO24,3.1482
Rb2NaAsCl6,3.1484
Na3Ta2Zn4P3(SO6)6,3.1488
SrHfZrSnO6,3.149
LiWF6,3.1491
RbNa3Fe7(PO4)6,3.1491
SiPb4(BrO)4,3.1492
Tb2Si4CN6,3.1495999999999995
Tl2Pd(CN)4,3.1499
Na10Hf4Ga4Si7S5O48,3.1504000000000003
Ta2Zn4(SO4)9,3.1505
Na7CaIn3(PO4)6,3.1507999999999994
Na3GdV2O8,3.1514
Na2Te4O9,3.1514
Sb2H30C9(NCl3)3,3.1517
Na3LaZnSi(SO6)2,3.1527
Ni3B7BrO13,3.1528
Na12Mg2Ta10Si15(SO24)3,3.1531
LiGa(WO4)2,3.1533999999999995
TeH20C6(NCl3)2,3.1535
Na10Ta6Ga2Si11SO48,3.1536
Y2Th5O13,3.1537999999999995
TeAsHO5,3.1542000000000003
Rb2Mo3O10,3.155
PrBrO2,3.1552
K2InH2Cl5O,3.1554
YTa7O19,3.1554
SbTeClO3,3.1556
Zr7N2O11,3.1558
TbTiClO3,3.156
Ta2Tl2P7HO24,3.1562
Y3Sn4BiO14,3.1568
RbP2WO8,3.1569000000000003
Na3LiV4O12,3.157
TaGaO4,3.1573999999999995
WXeOF6,3.1574
Sr2CaWO6,3.1576
Na6Hf2Zn6SiS11O48,3.1586
K3NdI6,3.1592
Na6MgTa5Si6(PO12)3,3.1598
ZnBi4(PO6)2,3.1599
BaNa2Ti2(Si2O7)2,3.1602
Rb2Mo4O13,3.1604
LiH4(NO2)3,3.1613
CoP2PbO7,3.1613
Ca8ZnCo3(Si2O7)4,3.1615
Li3Ni3OF7,3.1619
Na2Mo(H2O3)2,3.1622
Zn3TeP2Pb3O14,3.1622000000000003
Na5CrP2(O4F)2,3.1625
Sr3Tm2(GeO4)3,3.1627
NaZr2In2P3(SO8)3,3.1628000000000003
Na3ZrSi2GePO12,3.1631
Na7Ga2Si3Ge2(PO8)3,3.1633
Ni(NO3)2,3.1637
Zr2Te4Cl2O11,3.164
Tl2TeH6SeO10,3.1641
SrBiBrO2,3.1643
Rb2MnSi5O12,3.1643
V2Sn4H24C8O9,3.1644
PrTa7O19,3.1645
Na4ZrZnSi2SO12,3.1654
NaTa3InSiP5O24,3.1654
Na8HfZn3Si3(SO8)3,3.166300000000001
Cs6Si2O7,3.1667
LiLaSO,3.1672
LiFeWClO4,3.1676
YTiNbO6,3.1676999999999995
Na3Ta3GaSi3(PO8)3,3.1677000000000004
Na5Y2In2P5SO24,3.1678999999999995
Nd4Si4N7ClO3,3.1678999999999995
SrZrO3,3.1680999999999995
Na4ScInSi2SO12,3.1682
Sc(ClO4)3,3.1683
Sn3F8,3.1684
LiFe2P3O10,3.1686
Na5Ta3Ti(SiO4)6,3.1691000000000003
Na5ZrAl3Si3(SO8)3,3.1699
Na6La3TaSi2(PO6)4,3.17
SrMn(SeO3)2,3.1701
K3Bi7(SO6)4,3.1703
Na14Ca2Zr6Si9(SO16)3,3.1705
YTmO3,3.1706000000000003
RbTiZnOF5,3.1708
Rb2Cd(IBr)2,3.1710000000000003
NaHf2VF11,3.1712
Na5Al(HO)8,3.1712
MgNiP2O7,3.1714
LuAg(WO4)2,3.1717999999999997
Zr2Mo(PO6)2,3.1721
Rb2MgP2WO10,3.1724
MgFe2(PO4)2,3.1724999999999994
PH30Pt2C10I2NCl2,3.1727
RbNb(GeO3)3,3.1728
Li7NiOF7,3.1729000000000003
Na14Hf4Si11Sn4SO48,3.1734
Tl4Si5O12,3.1736
TlReO4,3.174
SrTeO3,3.1740000000000004
Na6MgZr3Si4(SO12)2,3.1742
PrTa3O9,3.1742
Na3Ta3AlSi3(PO8)3,3.1742000000000004
RbY(TeO3)2,3.1745
RbCdF3,3.1745
Sm2Th8O19,3.1751000000000005
ThTl3F7,3.1753
Er3TaO7,3.1754
Ba2SrWO6,3.1754
Na5Bi2As5O18,3.1755000000000004
Ca2TbSbO6,3.1758
Na15Ta2Zn10P9(SO8)9,3.1758
Na12Ca2Ta10Si15(SO24)3,3.1764
Mn4Be3Si3TeO12,3.1768000000000005
Y3Sb5O12,3.1775
Cs2NaBiBr6,3.1775
Li2SiS3,3.1777
Na6Y4Sc4Si3(S3O16)3,3.1778
Na2HfZn3(SO4)6,3.1779
CaVSi4H8O15,3.1779
NaSrZrSbO6,3.1782
NaHf2In2P3(SO8)3,3.1789
Na4YGaSi2SO12,3.1791
Na2Tm2B2TeO10,3.1794
P2Pb3O8,3.1799000000000004
ZnNi3(P2O7)2,3.18
V2Zn3TePb3O14,3.1807
Na10Y4Zn4Si3(S3O16)3,3.1808
Tl2MoO4,3.1808000000000005
Na7Y2Ta2Si5PO24,3.1809000000000003
LiSiSbCO7,3.1814
Na3WNO3,3.1819
LiAlGeO4,3.1826
NaH3C2O5,3.1827
K2PrAgBr6,3.1831
Sr5Cr3F19,3.1836
Gd2Ge(BO4)2,3.1838
Mo2H9C2NO7,3.1841
Li4Sn(PO4)2,3.1841000000000004
Na2Hf4Sc4Si3(S3O16)3,3.1843000000000004
SrLaCl5,3.1844
BaSm2O4,3.1846
RbTeNO3F4,3.1862000000000004
Zn15Te5As2P8(Pb3O14)5,3.1867
Nd2W2O9,3.1870000000000003
Li8Fe3Sn(PO4)6,3.1872
Mn5P4(HO2)10,3.1874
Na4Y3Ta(PO4)6,3.1875
MgTi2ZnO6,3.1876999999999995
NaInGaP(SO6)2,3.1877
Na10Ta4Si11Ge4SO48,3.188
Na3Y3TaP5SO24,3.1882
Mg2VBiO6,3.1885000000000003
CdTeMoO6,3.1894
Rb4CdBr6,3.1899
Na14La4Al4Si7S5O48,3.1904
Na3LaGa(PO4)3,3.1905
NaNi2Mo2H3O10,3.1907
MgCrF4,3.1907999999999994
MoPH3O7,3.1912
KRb2ScBr6,3.1918
Ta2Te2O9,3.1919
NaMg14GaO16,3.1921
PbSeO4,3.1922999999999995
Na2Hf4Si3(SO8)3,3.1928
Se(OF)2,3.1929
Na3ScTaSi2PO12,3.1932000000000005
Pr2Te4MoO14,3.1934
Na14Hf4Si11Ge4SO48,3.1937
LiTaWO6,3.1938
Sb2H24C6(NCl3)3,3.1939
Na2GaSn(PO4)3,3.1944
LiPaO3,3.1954
Na8TaGa3Si5SO24,3.1956
Na4Ta3InSi4(PO12)2,3.1958
Na7Sr2Fe7F32,3.196
Na3CdPCO7,3.1961
Rb2W(OF2)2,3.1963
NaPrO2,3.1965
Li3SiBiCO7,3.1966
ZnFeP2O7,3.197
NaTaSi2SnSO12,3.1971
Sr2Si5N8,3.1972000000000005
LiGaO2,3.1981
MgSi4(MoO6)2,3.1986000000000003
ScFe2BO5,3.1989
ZnH4(CO3)2,3.1989
SiH14C4S2(N4F3)2,3.1991
Na10Zr6Zn2Si7S5O48,3.1991
LiCo2P4H3O14,3.1992000000000003
Li4Ni3(OF3)2,3.1996999999999995
Mo4H12N2O15,3.2002
Na5Ta2Al2Si3(PO8)3,3.2003000000000004
K2RbCoF6,3.2015
SrCaSmSbO6,3.2016000000000004
Si2Ni3H4O9,3.2016000000000004
MgH12(ClO5)2,3.202
Sr2HfO4,3.2023
BiBOF4,3.2025
Er2WO6,3.202500000000001
PrTl(MoO4)2,3.2027
Na5Zn2In2P3(SO8)3,3.2043
Na2ZnGe2(HO2)4,3.2046
Na10Sc4Zn4Si3(S3O16)3,3.205
Na4As2O7,3.2056
ZnH8(NO2)6,3.2056
Cd(HN2)4,3.2059
SnH7Cl3O4,3.2061
Na5Y3TaSiP5O24,3.2062
YH6C2SNO9,3.2063
Na3CaTa5Si3(PO6)6,3.2068
TmSbMo2O9,3.2071
P2Pb4O9,3.2074
MgMn2P2(H2O5)2,3.2076
Sr3LiNbO6,3.2076
Ge3Cl8,3.2078
Li2Mn2(Si2O5)3,3.2082
Na2ZrCo(P2O7)2,3.2085
Li8Nb2O9,3.2086
PH18PtC6S3ClF6,3.2089
TmH16C4N11O13,3.2094
Mg30ZnFeO32,3.21
Tb2Hf2(MoO4)7,3.2106000000000003
Na5Mg2Ga2P3(SO8)3,3.2109000000000005
VH4N(OF2)2,3.2112000000000003
Sr2V2O7,3.2113
Na2ScInSi(SO6)2,3.2113000000000005
ScH11(IO3)2,3.2116
MgTa5(PO4)9,3.2116
Sr2NbInO6,3.2116
ZrHgH10C6O17,3.2128
LiLaMg14O16,3.2131
Y2MgTiO6,3.2132000000000005
Na4GaSi2SnPO12,3.2136
SrMnZn(PO4)2,3.2141
Sr2CaTeO6,3.2142
Na6Hf4Zn4Si3(S3O16)3,3.2149
Li2TiSiO5,3.2153
SrSmGa3O7,3.2158999999999995
Na4La3Ta(PO4)6,3.2171000000000003
Na2ZrSiSn(PO6)2,3.2172
TaGa3P2(SO6)4,3.2173
Na2YGaP2SO12,3.2174
LiCdPO4,3.2179
Na6TaAl3Si2(PO6)4,3.2179
Na4Ca2Al2SiS5O24,3.2183
Na3In(PO4)2,3.2187
BaCaLaSbO6,3.2198
Tb2Se2O7,3.2198999999999995
PrGaGe2O7,3.2204
Na5TaAl3SiP5O24,3.2204999999999995
Na2CrH5C4O11,3.2211
NaZnIn3(SO4)6,3.2213
NaGa(SeO3)2,3.2216000000000005
Na14Al4Ga4Si7S5O48,3.2221
Na4SiO4,3.2221
ErSbMo2O9,3.2223
Na4TaIn3(PO4)6,3.2226
Na2Hf2Zr2Si3(SO8)3,3.223
Ba2MgWO6,3.2231
BaNaH6Ir,3.2231
SnH6Cl4O3,3.2231
Zn3Mo2O9,3.2234
KNa2CoF6,3.2242
KHS,3.2248
PbSO3,3.2251000000000003
Bi2B3HO8,3.2252
Na5Hf2Si3Sn2(PO8)3,3.2254
Ba3CaTa2O9,3.2257
Na7La2In2SiP5O24,3.226
SrLaInO4,3.2261
NaMoO3F,3.2261
Na2SbAsCO7,3.2261
Nd2H12C7N2O17,3.2262000000000004
CsSm(MoO4)2,3.2265
LiGd(WO4)2,3.2269999999999994
CsSi2SbO7,3.2271
RbCrNiF6,3.228
Na3AsO4,3.2282
K2TiGe(PO5)2,3.2284
ZnAs2S4(O2F3)4,3.2295
Pb2CCl2O3,3.2298
Tb2MgTiO6,3.2311
Th2Ta6O19,3.2316000000000003
BaCaV2O7,3.2318
ZrN6O17,3.2319
Na3ZrSi2SnPO12,3.2320999999999995
K3In3(PO4)4,3.2322
K2BeH4(SeO5)2,3.2322
Na4Mg3ZrP2(SO6)4,3.2323999999999997
Cs2KPrI6,3.2328
Na10Ca4Zn4SiS11O48,3.2328
KPrDySbO6,3.232800000000001
NaTaGe3(PO4)6,3.2332
Y3Cr2(GaO4)3,3.2335
NaCrF4,3.2336
Na3Zn2Ga2PS5O24,3.234
Mg4N6O19,3.234
P3Pb5BrO12,3.2342000000000004
Er2MgTiO6,3.2353
Cs2RbGdCl6,3.2357
CsH7(C2O5)2,3.2358
ScBrO,3.236
K2MgV2O7,3.2368
Na4CaZrSi(PO6)2,3.2374
NiH4(NO4)2,3.2376
SrTlVO4,3.2379
NaYH8(CO3)4,3.238
Sr2CaI6,3.2383
Na7Ga2Si3Sn2(PO8)3,3.2384
Li5La3Nb2O12,3.2385
NaTaIn(PO4)3,3.2385
Nd3HoZr4O14,3.2386000000000004
SrZnSn(PO4)2,3.2387
SrPrGa3O7,3.2388
Li3Si2BiO7,3.2388000000000003
Na2TiGeO5,3.2391000000000005
Ho2Te4O11,3.2395
Li3Y3(TeO6)2,3.2397
ZnNiTe3O8,3.24
RbGd(WO4)2,3.2402
KI,3.2404
Na5YTa3Si5PO24,3.2404
ZnAsHPbO5,3.2405000000000004
Ni(CO2)2,3.2406
Li3SiSnBO7,3.2406999999999995
Li2Si3Ni2O9,3.2408
MgWO4,3.2409000000000003
Li3SiBiO5,3.2412
ScTeO3F,3.2415000000000003
NdH12(NO5)3,3.2416
TaGe(PO4)3,3.2423
Na4TiO4,3.2426
Mo3H8C4SN2Cl6O7,3.2427
ZnH12N4Cl4O3,3.2428
Sr(Si3N4)2,3.243099999999999
RbH2(IO3)3,3.2431
Sr2Re4H16C3(N2O7)3,3.2433000000000005
Tm3Ga5O12,3.2434000000000003
Tl3CrF6,3.2437000000000005
MnSi6Pb8O21,3.2441000000000004
SmTaO4,3.2442
Na5ZrIn3(PO4)6,3.2444
NaCaNbSnO6,3.2445000000000004
Mg(NO3)2,3.2447
Nd2Zr3(MoO4)9,3.2448
Pb2SeN2O9,3.245
Rb3NaTiO4,3.2452
TlCrNiF6,3.2459
Tm2MgTiO6,3.246
LiB(HO2)2,3.2461
BaGa2(GeO4)2,3.2465
CaZr4(PbO4)3,3.2467
Sr3LaV3O12,3.2467000000000006
Be3Fe4Si3TeO12,3.246900000000001
Na6Ni2C4SO16,3.247
Sr3LaTa3O12,3.2471
OsO4,3.2472000000000003
Sr2As2O7,3.2477
NaTa4Si3(PO8)3,3.2478
Na3Ta2Ga2SiP5O24,3.2481
Ba3NdV3O12,3.2482
Na5HfIn3(PO4)6,3.2483000000000004
Mg10TiSn(BO5)4,3.2487
Na3H2SNO8,3.2489
SmGd3Al4O12,3.249000000000001
Na3In2(PO4)3,3.2491000000000003
SmH6C2SNO9,3.2493
NiSnH12(OF)6,3.2497
NaVF6,3.2498
Na3SiBiCO7,3.2499
AgH20S6N5O9,3.2499
Na8Al6Si6CO27,3.2507
KSmHfSnO6,3.2509
DyNbO4,3.2509
Nd2(MoO4)3,3.2512
Na4Mg2Sc2SiS5O24,3.2513000000000005
Na14Ca4La4Si5S7O48,3.2515
Na4YInSi(PO6)2,3.252
NaMg6AlO8,3.2520999999999995
Ca2NbInO6,3.2524
Na7La3TaSi3(PO8)3,3.2534
NaTa2SiGe2P5O24,3.2534
Pb(BrO3)2,3.2535000000000003
LiNi2P3O10,3.2537000000000003
PC2S2N3,3.2539
VH10C2S2(O2F)6,3.2553
Sr(AsO3)2,3.2581
ThTeWO7,3.2581999999999995
ZnCoH22C5N10(Cl2O3)2,3.2584
Sb4PdC4(O2F11)2,3.2589
Na2TiSi4H4O13,3.2593
Li4Si3(NiO5)2,3.2595
Na5Al2SiSn2P5O24,3.2596
Zn(IO3)2,3.2597
LiPr(WO4)2,3.2598000000000003
TePb3Cl4O3,3.2599
Sc2(CN2)3,3.2601
Na5La3ZrSi3(SO8)3,3.2602
Na2TeO3,3.2606
Rb2InGaF6,3.2609
Na4PH5Se3O16,3.2615000000000003
Na6Ca4Hf4Si3(S3O16)3,3.2617
Na6Ta5ZnSi6(PO12)3,3.2619
NaLa2Zr2P3(SO8)3,3.2619
SnF2,3.2629
NbClF8,3.263
Na2Ti2Si2O9,3.2630000000000003
Li6WO6,3.2636
Na7Sc2Ta2Si5PO24,3.2636000000000003
Na5Ta3InSi5PO24,3.264
PrSbMo2O9,3.2644
Mg2Si5N8,3.264499999999999
Rb2CO3,3.2646
Na3AlH10C6O17,3.2651000000000003
NaMg3(SiO3)4,3.2656
SrPH10S3O5,3.266
LuIO,3.2664000000000004
Na8La3TaSi4(PO12)2,3.2673
MnSb2F12,3.2674000000000003
Na2MgGeO4,3.2678000000000003
Mg(CO2)2,3.268
SrNdGa3O7,3.268
Na4Ta3AlSi4(PO12)2,3.2683
Li5WNO4,3.2687000000000004
Rb2GeO3,3.2688
Sr(IO3)2,3.2692
MgH4(NO4)2,3.2694
Na3ZnInP2SO12,3.2695000000000003
NaGePCO7,3.2699
Na3HfSi2SnPO12,3.27
Rb3YI6,3.2701
NaTaSiGe(PO6)2,3.2702
Na10Al4Ga4Si5S7O48,3.2702
Y2Te4O11,3.2702
SeO2,3.2704
SmGaGe2O7,3.272
Li10Sn(PO6)2,3.2726
LiC,3.2727
Sb2AsAuXeF14,3.2728
Na4AlInSi2SO12,3.2732
RbCaH3,3.2736
NaTaSi2GeSO12,3.2737000000000003
Na3Nd(AsO4)2,3.2738
K4Hf5O12,3.274
Na8Y3TaSi5SO24,3.2743
Na14Hf3Zn5Si6(SO8)6,3.275
RbLi2CdC2O6F,3.2753
Sb4PtC4(O2F11)2,3.2754
Rb2PrAgBr6,3.2758
LiSi4H27(C3O)3,3.276
Zr3TiO8,3.2762
Na3In2Ga2P3(SO8)3,3.2764999999999995
CdH8C4(S2N3)2,3.2772
Rb2MgH4,3.2777
NaZn4H18SClO16,3.2778
Ta2W2O11,3.2779
RbSm(MoO4)2,3.278
SrLaGa3O7,3.2781
CaMg2Al6O12,3.2783
YCoF5,3.2783
Tb3Ga5O12,3.2791
Na3P(SO)2,3.2791999999999994
Na5Sc3TaSiP5O24,3.2796
Na14Ta5In3(SiO4)12,3.2805
MnH3C2N9O,3.281
RbHgC3(NO)3,3.2812
Sr2I2O,3.2812
MgSb2(H4O3)6,3.2815
Na4ScTa3Si4(PO12)2,3.2816
Li3Co2P5O16,3.282
LiMg30BiO32,3.2822
NaPrYSbO6,3.2822
Tl3PbCl5,3.2824000000000004
NaMn6P7O24,3.2825
ZnSiO3,3.2839
Nb2ZnO6,3.2845
NiH10(SeO5)2,3.2845
Sr2VBrO4,3.2847
CsBa2Cr2F11,3.2848
Na3Sr4Cr5F26,3.2848
Na2CoH8(SO6)2,3.2849
RbGaBr4,3.285
Bi3O2F5,3.285
Na3SbF6,3.2855
Zr4Ni(PO4)6,3.2858
Na3AsH24SeO15,3.2867
TbTl(MoO4)2,3.2868
K2Pb3C3O9F2,3.2869
NaLi5Mn2P2(CO7)2,3.2875
Rb2H4Pt,3.2877
Na6Zr2Zn6SiS11O48,3.2884
Na3InCl6,3.2887
Na4In2Si(PO6)2,3.2889
NaP3(PbO3)4,3.2891
SrCaAl2(SiN3)2,3.2892
SmCl3,3.2898
Cs2Ti(Si2O5)3,3.2902
SrH2I2O7,3.2912
ZnH4(IO4)2,3.291300000000001
SrMg30CdO32,3.2915
Na4HfSi3SnO12,3.2924
SrSe2O5,3.2926
Na14Y4Al4Si7S5O48,3.2926
Zn2TeBr2O3,3.2928
Li4Ni5(P3O11)2,3.2929
NaTaWO6,3.2929
Na21Ca10Ta2P15(SO24)3,3.293
Na14Ta5Al3(SiO4)12,3.293
Sm2Hf2(MoO4)7,3.2931
TbGd3(PO4)4,3.2932
Rb3ZnH5,3.2933000000000003
Na10Ta4Si11Sn4SO48,3.2934
Na3B6NO13,3.2938
Sr3Ta4(O6F)2,3.2944
NdH4C3O8,3.2944000000000004
Sr3CaO4,3.2945
Mg3NiO4,3.2945
Na3La(AsO4)2,3.2946
LiSb2P5O16,3.2951
ReO2F3,3.2953
Rb3GdV2O8,3.2957
Na4Mn3P4O15,3.2957999999999994
Tm2Mo4O15,3.2963
Na15Mg10Ta2P9(SO8)9,3.2964
As3Pb5O12F,3.2964
SnH8(ClO)4,3.2964
TaSi2H35(C3N)4,3.2973
Rb2ScAgCl6,3.2973
Tm(NO3)3,3.2974
TlCdCl3,3.2976
LaNbTeO6,3.2978
Nd5As2ClO10,3.2983
B5F6,3.2985
Na3Ta2Al2SiP5O24,3.2989
RbHSO2,3.2989
NaSrHfSbO6,3.2996000000000003
Rb3BiBr6,3.3
Na4Zn2Si(SO6)2,3.3002
Na4TaGa3(PO4)6,3.3005999999999998
LiAs2H3O7,3.301
NaGdGeO4,3.3011000000000004
Na3Mg2In2PS5O24,3.3014
CdC2(SN)2,3.3016
Mn5H8S3O16,3.302
RbB3Te2O9,3.3025
Rb2CaH4,3.3025
ScNbO4,3.3026
Li2W2O7,3.3027
Na3H6Ir,3.3028000000000004
NaNiBO3,3.3029
Mn4GeP4(H6O11)2,3.3033
LiB3H18N5,3.3036
SnAsF7,3.3038
Lu2Mo4O15,3.3038
LiB(CO2)4,3.3042
Pr2Te4O11,3.3043
TaInP2SO12,3.3046
Na4Ca2Si(SO6)2,3.3048
H8RuC5N(ClO)3,3.305
Na7Sc2Si3Sn2(PO8)3,3.3052
NaSmSe2O7,3.3052
Na3Ta5ZnSi3(PO6)6,3.3062
Rb2NdAgBr6,3.3063
Mg3V2O8,3.3068
LiMg2H7Os,3.3071
SrCaTbSbO6,3.3076000000000003
NaSr3GdP3O12F,3.3081
Na14Y3Ta5(SiO4)12,3.3083
K2Mn3H6S3O16,3.3084
Cs2NdAgF6,3.3086
Na8TaIn3Si4(PO12)2,3.3088
Sr3WO6,3.3088000000000006
GePb2(SeO3)4,3.3096
Rb2HBrO,3.3099
NaCa3AlFe3(SiO3)8,3.3099
Na2Zr3ZnP4(SO12)2,3.3102
Nd2TeMo6H38O43,3.3103
Rb2YAgBr6,3.3104
Pr3NF6,3.3108
RbNd(MoO4)2,3.3109
Na4ZrZn3SiS5O24,3.311
SnH14C4(NCl2)2,3.3127
LiMg4H13Os2,3.3137
Nd2TiO5,3.3138
NaZr2Ta2SiP5O24,3.3141000000000003
Bi2(SO4)3,3.3147
Dy2Mo4O15,3.3157
Na5ZrSc3Si3(SO8)3,3.3157
Tl2B4O7,3.3162000000000003
Na4La2Zn2SiS5O24,3.3167000000000004
K3AlBr6,3.3168
MgFeSiO4,3.3169
Y2Mo4O15,3.3185
Rb2CoH12(SO7)2,3.3186
Ga(IO3)3,3.3187
LiFeP3H8O13,3.3193
Na8Zr3ZnSi5SO24,3.3193
Y(IO3)3,3.3195
Sr2PrSbO6,3.3198
Mg30ZnCdO32,3.3201
Na14La4Mg4Si5S7O48,3.3203
HgAs2H2F14,3.3206
Sn2H12Cl6O7,3.3211000000000004
PH24W12C6N3O40,3.3213
NaMg2Zr2PS5O24,3.3214
Na2TaSi2GePO12,3.3214
Na7MgIn3(PO4)6,3.3214
Nd2Mo(SeO5)2,3.3219
LiMnHSO5,3.3221
PH9C2S(NO)4,3.3231
ScTl3F6,3.3232
PH30W12C9N3O40,3.3232
NaCoPH10CO10,3.3235
Te(S2O7)2,3.3237
Na3Hf2SiSn2P5O24,3.3237000000000005
RbTm(WO4)2,3.324
Na14Ta5Ga3(SiO4)12,3.3241000000000005
Na6TeMo6(H22O23)2,3.3242
Na14Hf3Mg5Si6(SO8)6,3.3242000000000003
Rb2YInCl6,3.3242000000000003
Sr2GdSbO6,3.3244
Na5H4BrO4,3.3245
NaMgGa(SO4)3,3.3255
Sr2TlI5,3.3255
MnH8C4(NO3)2,3.3256
KNaCa3Mg10(SiO3)16,3.3256
LiFe(PO3)3,3.326
Lu3TaO7,3.3260000000000005
SbPC3S3N3Cl3O,3.3261
Zn2B2PbO6,3.3262
Sm2ScTaO7,3.3268
Na7ZnIn3(PO4)6,3.3275
Tl3GaF6,3.3277
Nd2Zr2O7,3.3281
Li2CoH12(SO7)2,3.3284
Na8Hf2In2Si5SO24,3.3284
SrCaZnWO6,3.3286
Rb2CoB12(H2O3)10,3.3287
Rb2SiO3,3.3292
PbCO3,3.3293
Li7NbN4,3.3305
SrNdGaO4,3.3314000000000004
Na2CaSiO4,3.3315
Na15Ca10Ta2P9(SO8)9,3.3321
Na5TaIn3SiP5O24,3.3322000000000003
Ba2Zn(BO3)2,3.3328
Na14Y4Ta4Si11SO48,3.3329000000000004
ZnH4(NO4)2,3.333
ZnH8(NO5)2,3.3331
Bi6P4PbO20,3.3332
NaTa2Ga2P5SO24,3.3338
Rb3FeF6,3.3341000000000003
Na4ZrSi3SnO12,3.3348000000000004
SnPbF4,3.3352
NaNdO2,3.3353
Na3Al3Si3AgBrO12,3.3353
Na6Mg7Zr(SO4)12,3.3357
CoP4(H5O8)2,3.3363
CaCd(CO3)2,3.3363
SrLaGaO4,3.3365
Mn4Be3Si3SO12,3.3366
Ca2As2O7,3.3366
SnH10Cl4O5,3.3374
PBr3,3.3374
RbBeH3,3.3379
TmTaTiO6,3.3387999999999995
Rb3TeH6(ClO2)3,3.3389
MnSO3,3.339
NaLaNiWO6,3.3392
Li7TaN4,3.3395
CaTm2O4,3.3401
Rb3MoF6,3.3404
Y4H9NO13,3.3405
ZnH16C6(N3O5)2,3.3406
Na4TaIn(SiO4)3,3.3407
Sm2As4O9,3.3407
KHo(WO4)2,3.341
Rb3YV2O8,3.3415
Sr2NdSbO6,3.341600000000001
Nd2Th8O19,3.341600000000001
Mg2BBrN2,3.3419
La3TiCl5O4,3.342
MgAg(PO3)3,3.3422
Na7Ta2Al2Si5PO24,3.3422
Rb2CaV2O7,3.3426
Sr4Al6SO12,3.3427
Li5Fe3F14,3.3431
KVTeO5,3.3433
CdH12C4I2(NO)4,3.3439
SiH17S3N5,3.344
NaTaSn3(PO4)6,3.3440000000000003
Nd2NCl3,3.3441
Li3P2WO9,3.3444000000000003
SrPr2O4,3.3444000000000003
Nd(IO3)3,3.3445000000000005
RbMg30CrO32,3.3449
NaZrInSi(SO6)2,3.3449
MnPH5CO4,3.3454
RbSn2(PO4)3,3.3458
NaCuH28CS6(N2O7)2,3.3458
Rb2GdGa(SiO3)4,3.3463
RbI,3.3463000000000003
NaTaSiSn(PO6)2,3.3464000000000005
Al(IO3)3,3.3466
Na10Ca4Hf4Si5S7O48,3.3466000000000005
In2Si2Pb2O9,3.3467
CdIClO3,3.3467
PrH12(NO5)3,3.3467
MnH2SO5,3.3472
InH10N2Cl5O,3.3473
LiH3C2O5,3.3479
Mg2H6Os,3.3481
RbTa(PO4)2,3.3485
Ba2NbInO6,3.3486
BaBi2(B2O5)2,3.3498
Mg30FeNiO32,3.349899999999999
Li2Fe(WO4)2,3.35
LiVZnO4,3.35
Na3ErV2O8,3.3505
CaFeP2O7,3.3507
YCo(BO2)5,3.3508
LiBH2C4O9,3.351
Li2V2(SO4)3,3.3511
Tm2GeO5,3.3514
Li7NbO6,3.352
Na5Ta3GaSi5PO24,3.3522000000000003
LiBiCSO7,3.3523
NaZnMoHO5,3.3523
NaNi4H9(CO5)3,3.3525
Rb2Zr(IO3)6,3.3527
Y3Ga5O12,3.3529000000000004
LiNi2(PO3)5,3.3530999999999995
Na7Ta2Ga2Si5PO24,3.3538
Na2H10SO5,3.3539
Si2BAsH29C9N,3.354
CsRbMo3O10,3.3547
Na2MgInP(SO6)2,3.3549999999999995
LiMgAlH6,3.3555
RbLiMnP3HO10,3.3555
Na2SeO4,3.3557
Na2ScGaSi(SO6)2,3.3557
NaTaGeO5,3.3561000000000005
Na5Mg2In2P3(SO8)3,3.3568
Na6Mg2Zn2SiS5O24,3.3569
NaVZnO4,3.3573000000000004
Sr4Te3(ClO2)4,3.3574
RbMn4(PO4)3,3.3576
SnH10C3Br3N,3.3584
Na14La4Ta4Si11SO48,3.3588
Na14Ta4Ga4Si11SO48,3.3593
SbH5(O2F3)2,3.3593
SrLa2WO7,3.3594
Zn(NO3)2,3.3595
SrCaYSbO6,3.3595
NaAlSnP2SO12,3.3598
Sr3(AsO4)2,3.3602000000000003
H5C3N5O,3.3608
Na7La3ZnSi3(SO8)3,3.3608
Na14Sc3Ta5(SiO4)12,3.3614000000000006
Ba5Er8Zn4O21,3.3618
CsNaTiO3,3.3618
NaLa2Al2PS5O24,3.3626000000000005
K2RbSbCl6,3.3633
K2Zn2(MoO4)3,3.3633
Na14Hf4Mg4Si7S5O48,3.3637
NaNdHfSnO6,3.3638
Zn3S2O9,3.3639
Na4ZnGa(PO4)3,3.3640000000000003
Sb4H2SO10,3.3641000000000005
Rb3HoV2O8,3.3645
Ba3B3Pb2ClO9,3.3652
Li6Mn3(PO4)4,3.3653000000000004
Pr(AlBr4)3,3.3654
Si2H2S3,3.3657
Na10Al4Zn4Si3(S3O16)3,3.3662
Ba8SrCa3(WO6)4,3.3662
KPrHfSnO6,3.3667
Sm(C2N3)3,3.3669
Na6Hf2Mg6SiS11O48,3.3671999999999995
Na6Y4Si3(SO8)3,3.3685000000000005
NaZr2Sc2P3(SO8)3,3.3687
RbInPHO5,3.3688
Sr2PrTaO6,3.37
RbBrF4,3.37
Nd3NCl6,3.3706
Na5ScTa3Si5PO24,3.3711
Na3H5(SeO4)4,3.3712
K4Mo2H6S2O9,3.3717
Na6Y2Sc2Si3(SO8)3,3.3717999999999995
Na2LiTlF6,3.372
Tb(NO3)3,3.3721
RePbClO4,3.3721
Zn3P2H2O9,3.3726000000000003
LiSmO2,3.373
NaZn3H3S2O9,3.3732
Na5Zr2Ta2Si5PO24,3.3735
Na4ZnIn(PO4)3,3.3739
NaPr(SeO4)2,3.3741000000000003
Si6Sb2H36(C4O)3,3.3746
Na4WO5,3.3748
Sr2InBr5,3.3753
Na4AsHO5,3.3754
LiBi2P3O11,3.3756
BaB4(SbO6)2,3.375900000000001
TeH12(Cl2O3)2,3.3771
NaMgIn3(SO4)6,3.3775
Ba2HoTaO6,3.3782
Na5Hf2Ta2Si5PO24,3.3791
Na2Hf4Al4Si3(S3O16)3,3.3794
SnH4SNO4F,3.3794
NaZrGaSi(SO6)2,3.3795
Rb3SbCl6,3.3798
Na2AlCr(P2O7)2,3.3801
Na6Sc8Si3(S3O16)3,3.3801
MnH2SO4,3.3809
Ba3Zn2B3O9F,3.3811
LiNbGeO5,3.3815
Na6Zn4SiS5O24,3.3817000000000004
Na8MgZr3Si4(PO12)2,3.3822
RbMgCrF6,3.3825000000000003
Rb3TmV2O8,3.3826
Na3YZnSi(SO6)2,3.3827
LiAl(GeO3)2,3.383
MgNi(WO4)2,3.3831
H2SeO4,3.3831
Na14La8Si7S5O48,3.3842
Na14Ta4In4Si11SO48,3.3843
Na8Zr2In2Si5SO24,3.3846
NaSmGeO4,3.3848000000000003
Nd(AlBr4)3,3.3848000000000003
NaHfTaSi(PO6)2,3.3849
NaZnGa3(SO4)6,3.3853
Na6Ta3Al(SiO4)6,3.3854000000000006
Sr2LaSbO6,3.3858
NaBe4SbO7,3.3858999999999995
Si3As(H3C)9,3.3859000000000004
MgMnB2O5,3.3863
Rb3TbV2O8,3.3869
Sr2NiSe2(ClO3)2,3.3870000000000005
RbNd(WO4)2,3.3871
Na14Zr4Ga4Si9(SO16)3,3.3874000000000004
ZrCdH10C6O17,3.3874000000000004
LiSb4P7O24,3.389
NaNO,3.389
P3Pb5ClO12,3.3891000000000004
Te2O3F2,3.3892
Mg30CdNiO32,3.3895
Na5Gd(MoO4)4,3.3896
Na10TaGa7(PO4)12,3.3901000000000003
PrGaO3,3.3909
Rb3ErV2O8,3.3909
MgH2(SeO4)2,3.3914
Na6Sc3TaSi2(PO6)4,3.3915
MgScBO4,3.3919
Rb3DyV2O8,3.392
Na2LaZnP(SO6)2,3.3920000000000003
Na7Y3MgSi3(SO8)3,3.3929
Ba2ErTaO6,3.3934
Pr2NCl3,3.3939
TmIO,3.3943
Na6Al4Si3(SO8)3,3.3944
Na3TaSi3GeO12,3.3945
SnH20C7IN,3.3954
ReH6CN3O4,3.3959
Y2GeO5,3.3976
RbPrO2,3.3978
K2H2C2O5,3.3984
NaGd(PO3)4,3.3984