formula,band_gap
Sm3Te4,0.0
Sm3SnN,0.0
Sm3Sn13Rh4,0.0
Sm3Sn13Ir4,0.0
Sn2(PO3)5,0.0
Sm3Si3Ni,0.0
Sm3Si,0.0
Sm3Se4,0.0
Sm3Sc,0.0
Sm3Sb4Se9,0.0
Sm3Si2Ni,0.0
Sm3Sb4Pt7,0.0
Sn2(SO4)3,0.0
Sn2PdAu,0.0
Sn2Pd3Au,0.0
Sn2Pd2Au,0.0
Sn2Pd,0.0
Sn2P3O10,0.0
Sn2N2O,0.0
Sn2Mo,0.0
Sn2Ir,0.0
Sn2Au,0.0
Sm3Co11B4,0.0
Sm2Mo2C3,0.0
Sm2Mo2O7,0.0
Sm2Ni7,0.0
Sm2NiB10,0.0
Sm2NiSn4,0.0
Sm2O,0.0
Sm2Pd2Pb,0.0
Sm2PdRh,0.0
Sm2PdRu,0.0
Sm2Ru2O7,0.0
Sm2Si5Pt3,0.0
Sm2Si5Pd3,0.0
Sm2Si5Ni3,0.0
Sm2Si3Pd,0.0
Sm2Si3Ni,0.0
Sm2MnNiO6,0.0
Sm2Si3Ge,0.0
Sm2SbS,0.0
Sm2SbO2,0.0
Sm2Sb5,0.0
Sm2Sb,0.0
Sm2RuAu,0.0
Sm2MnGa6,0.0
Sm2MnCoO6,0.0
Sm2Mg,0.0
Sm2IrRu,0.0
Sm2IrRh,0.0
Sm2IrPd,0.0
Sm2MgAl,0.0
Sm2IrAu,0.0
Sm2InNi2,0.0
Sm2InHg,0.0
Sm2InGe2,0.0
Sm2InAu2,0.0
Sm2InAg,0.0
Sm2InPd2,0.0
Sm2Si5Rh3,0.0
Sm2MgCd,0.0
Sm2MgGe2,0.0
Sm2Mn2Fe15,0.0
Sm2Mn2Al2Fe13,0.0
Sm2Mn17C2,0.0
Sm2Mn12P7,0.0
Sm2MgTl,0.0
Sm2MgPd2,0.0
Sm2MgIn,0.0
Sm2MgTi2(ClO3)2,0.0
Sm2Si5Ru3,0.0
Sm2Sn5,0.0
Sm2Ta3(SO4)2,0.0
Sm3(SiRh)2,0.0
Sm3(SiPd)2,0.0
Sm3(Si3Pd10)2,0.0
Sm3(Sb7Te12)2,0.0
Sm3(P3Pd10)2,0.0
Sm3(SiRu)2,0.0
Sm3(MnSn)4,0.0
Sm3(GeRh)2,0.0
Sm3(Ge3Pd10)2,0.0
Sm3(GaNi3)2,0.0
Sm3(CuSn)4,0.0
Sm3(GeRu)2,0.0
Sm3(CuGe)4,0.0
Sm30(P4Ir5)13,0.0
Sm39S56,0.0
Sm3Cd,0.0
Sm3Bi(Ru2O7)2,0.0
Sm3AlNiS7,0.0
Sm3AlN,0.0
Sm3Al11,0.0
Sm3Al,0.0
Sm3(Bi7Te12)2,0.0
Sm2US5,0.0
Sm2U2Se3O4,0.0
Sm2TlIn,0.0
Sm2TlHg,0.0
Sm2TlCd,0.0
Sm2Ti2O5,0.0
Sm2Te5,0.0
Sm2TlAg,0.0
Sm3(Co2Sn)4,0.0
Sm2V(Fe8N)2,0.0
Sm2VFe16,0.0
Sm3(Al3Ru)4,0.0
Sm2ZrCo16,0.0
Sm2ZnSb4,0.0
Sm2VCo16,0.0
Sm2ZnRu,0.0
Sm2ZnHg,0.0
Sm2Zn17,0.0
Sm2ZnIr,0.0
SiRu2,0.0
SmFeSb3,0.0
SmFeSi,0.0
SmFeSi2,0.0
SmGa,0.0
SmGa2,0.0
SmGa2Co,0.0
SmGa2Co3,0.0
SmGa2Ni,0.0
SmGa2Ni3,0.0
SmGa3,0.0
SmGa3Ag,0.0
SmGa3Cu,0.0
SmGa3Pd,0.0
SmGa3Pt,0.0
SmGaSb2,0.0
SmGaRh2,0.0
SmGaPt,0.0
SmGaNi,0.0
SmGaCo,0.0
SmGaAu2,0.0
SmFeCu,0.0
SmFeC2,0.0
SmEuHfTiO6,0.0
SmEuHfCrO6,0.0
SmEuCuS3,0.0
SmEuNbVO6,0.0
SmEu3,0.0
SmErZn2,0.0
SmErTl2,0.0
SmErTi2(Fe8Co3)2,0.0
SmErRu2,0.0
SmErRh2,0.0
SmErMn4,0.0
SmEu2SbO6,0.0
SmGd3,0.0
SmEuRh2,0.0
SmFeB4,0.0
SmFe5,0.0
SmFe4(CuO4)3,0.0
SmFe2SiC,0.0
SmEuS2,0.0
SmFe2,0.0
SmFe12,0.0
SmFe10Mo2N,0.0
SmEuTiNbO6,0.0
SmEuTi4O12,0.0
SmFe12N,0.0
SmErMg2,0.0
SmGdB12,0.0
SmHoMg2,0.0
SmHoRh2,0.0
SmHoRu2,0.0
SmI,0.0
SmI2,0.0
SmIn,0.0
SmIn2Ni9,0.0
SmIn2Pd,0.0
SmIn2Rh,0.0
SmIn3,0.0
SmIn7Cu5,0.0
SmLu3,0.0
SmInRh2,0.0
SmInRh,0.0
SmInPt4,0.0
SmInPd,0.0
SmInIr,0.0
SmInCu,0.0
SmInCo2,0.0
SmInAu2,0.0
SmInAu,0.0
SmInCu4,0.0
SmHoIn2,0.0
SmHoHg2,0.0
SmHo3,0.0
SmGe5,0.0
SmGe3Rh5,0.0
SmGe3,0.0
SmGeIr,0.0
SmGe2Pd,0.0
SmGe2,0.0
SmGe,0.0
SmGdZn2,0.0
SmGdS2,0.0
SmGdCo17,0.0
SmGdAg2,0.0
SmHgAu2,0.0
SmHg3,0.0
SmHg2,0.0
SmH3,0.0
SmGeRu,0.0
SmGePt,0.0
SmH2,0.0
SmErIr2,0.0
SmErIn2,0.0
SmErHg2,0.0
SmBRh3,0.0
SmBe13,0.0
SmBeCu4,0.0
SmBi,0.0
SmBi2Au,0.0
SmBi3,0.0
SmBiAu2,0.0
SmBiPd2,0.0
SmBiRh,0.0
SmBiRu2O7,0.0
SmBr,0.0
SmBr2,0.0
SmC2,0.0
SmC6,0.0
SmCdHg2,0.0
SmCdGa,0.0
SmCdAu2,0.0
SmCdAu,0.0
SmCdAg2,0.0
SmCd3,0.0
SmCd2,0.0
SmCd11,0.0
SmCd,0.0
SmCO4,0.0
SmB6,0.0
SmAs,0.0
SmAlZn,0.0
SmAs2Pd3,0.0
SmAlSi,0.0
SmAlPd,0.0
SmAlGe,0.0
SmAlGa,0.0
SmAlFe,0.0
SmCdIn,0.0
SmAsPd,0.0
SmAsRuO,0.0
SmB4(IrOs)2,0.0
SmB2Rh2C,0.0
SmB2Ir3,0.0
SmAsPt,0.0
SmB2,0.0
SmAu3,0.0
SmAu,0.0
SmAsSe,0.0
SmCdPd,0.0
SmCdPd2,0.0
SmDy3,0.0
SmCuSn,0.0
SmCuSi,0.0
SmDyFe17,0.0
SmCuPb,0.0
SmCuP2,0.0
SmCu6,0.0
SmDyIn2,0.0
SmErFe17C2,0.0
SmErFe17,0.0
SmEr3Mn8,0.0
SmEr3Fe34,0.0
SmEr3,0.0
SmDyZn2,0.0
SmDyTl2,0.0
SmDyRu2,0.0
SmDyIr2,0.0
SmEr(TiFe11)2,0.0
SmLuHg2,0.0
SmCu5Sn,0.0
SmCu4Pd,0.0
SmCo9Si4,0.0
SmCo9Si2,0.0
SmCo4Cu,0.0
SmCoGe,0.0
SmCo4B,0.0
SmCo3P2,0.0
SmCo2Cu3,0.0
SmCo2,0.0
SmCo4Ag,0.0
SmCu5,0.0
SmCoGe2,0.0
SmCoP,0.0
SmCu4Ag,0.0
SmCu2,0.0
SmCu,0.0
SmCrSb3,0.0
SmCrO4,0.0
SmCr2Si2C,0.0
SmCoSi2,0.0
SmCoSi,0.0
SmCoSb3,0.0
SmCoSb2,0.0
SmCrGe3,0.0
SiS4,0.0
SmLuIn2,0.0
SmLuRu2,0.0
SmTmHg2,0.0
SmTmIn2,0.0
SmTmMg2,0.0
SmTmRh2,0.0
SmTmRu2,0.0
SmTmTl2,0.0
SmTmZn2,0.0
SmU2Se5,0.0
SmUAl4,0.0
SmUN2,0.0
SmUTe6,0.0
SmV2Fe10N,0.0
SmVSb3,0.0
SmY(MnGe)4,0.0
SmYFe17,0.0
SmYCu4,0.0
SmYCo4,0.0
SmTm3,0.0
SmYB12,0.0
SmYAg2,0.0
SmY3Fe34,0.0
SmY3,0.0
SmTlPd,0.0
SmThN2,0.0
SmThB12,0.0
SmTh4O10,0.0
SmTi4SnO12,0.0
SmTh,0.0
SmTe2,0.0
SmTe,0.0
SmSnRh,0.0
SmYFe6,0.0
SmTiFe11,0.0
SmTlAg2,0.0
SmTl,0.0
SmTiVFe10,0.0
SmTiO3,0.0
SmTiFe5Co6,0.0
SmTiFe11N,0.0
SmTiFe11C,0.0
Sn(PO3)3,0.0
Sn(TePd3)2,0.0
Sn(WO3)18,0.0
Sn(WO3)3,0.0
Sn13Pd20,0.0
Sn14Sb11Pt8,0.0
SiOs,0.0
SiP2,0.0
SiRu,0.0
SiRh3,0.0
SiRh2,0.0
SiPt5Pb,0.0
SiPt3,0.0
SiPt2,0.0
SiPt,0.0
Sn(Mo3S4)2,0.0
SmZn5,0.0
SmZn3,0.0
SmZn2Cd,0.0
SmZn2Ag,0.0
SmZn2,0.0
SmZn12,0.0
SmZn,0.0
SmYTl2,0.0
SmYS2,0.0
SmYMg2,0.0
SmZnCuAs2,0.0
SmZr4O9,0.0
SmZnCo2,0.0
SmZr,0.0
SmZnSi,0.0
SmZnRh,0.0
SmZnPd,0.0
SmZnIn,0.0
SmZnGe,0.0
SmZnGa,0.0
SmZnSn,0.0
SmSnPd2,0.0
SmSnPd,0.0
SmMn6(Sn2Ge)2,0.0
SmMnB4,0.0
SmMnCo3Cu,0.0
SmMnGe,0.0
SmMnGe2,0.0
SmMnO3,0.0
SmMnSi,0.0
SmMo6(SeS)4,0.0
SmNi,0.0
SmNi2,0.0
SmNi5,0.0
SmNiAs,0.0
SmPOs2C,0.0
SmP,0.0
SmOs2,0.0
SmO2,0.0
SmO,0.0
SmMn5Co7,0.0
SmNiSb2,0.0
SmNiP,0.0
SmNiO3,0.0
SmNiGe2,0.0
SmNiB4,0.0
SmNiSb,0.0
SmMn4(CuO4)3,0.0
SmMn2O5,0.0
SmMg5Sb4,0.0
SmMg3,0.0
SmMg2V3S8,0.0
SmMgAg,0.0
SmMg2Sc,0.0
SmMg2Cu9,0.0
SmMg2Ag,0.0
SmMg2,0.0
SmMg,0.0
SmLuTl2,0.0
SmMg2Mn3S8,0.0
SmPPd,0.0
SmMgAg2,0.0
SmMgAu2,0.0
SmMn2,0.0
SmMgZn2,0.0
SmMgTl,0.0
SmMgTiS4,0.0
SmMgRh2,0.0
SmMgMnS4,0.0
SmMgIn,0.0
SmMgCd2,0.0
SmPPt,0.0
SmPRu2C,0.0
SmSi3Rh5,0.0
SmSi3Pt5,0.0
SmSi3Pt,0.0
SmSi3Os,0.0
SmSi3Ni,0.0
SmSi3Ir,0.0
SmSi2Rh3,0.0
SmSi2Rh,0.0
SmSi2Ni,0.0
SmSi2,0.0
SmSi,0.0
SmSi2Ru3,0.0
SmSiNi4,0.0
SmSnAu2,0.0
SmSnAu,0.0
SmSn3Ru,0.0
SmSn3,0.0
SmSiOs2C,0.0
SmSn2,0.0
SmSiPt3,0.0
SmSiPt,0.0
SmScSi,0.0
SmSbS,0.0
SmRe2SiC,0.0
SmPu,0.0
SmPt3,0.0
SmPt,0.0
SmReB4,0.0
SmPdPb,0.0
SmPd3S4,0.0
SmPd3,0.0
SmPd2Pb,0.0
SmPd,0.0
SmPbAu2,0.0
SmPbAu,0.0
SmSbTe,0.0
SmRh,0.0
SmSbRh,0.0
SmSbPd,0.0
SmSbIr,0.0
SmSb2Pd,0.0
SmSb2Au,0.0
SmRh2,0.0
SmSb2,0.0
SmS,0.0
SmRu2,0.0
SmRhC2,0.0
SmSb,0.0
Sn4Pt,0.0
Sr2PrMn3O9,0.0
Sr2PrO4,0.0
Sr2PtAu,0.0
Sr2PtN2,0.0
Sr2ReN3,0.0
Sr2Rh,0.0
Sr2RhO4,0.0
Sr2Si3Ni,0.0
Sr2Si,0.0
Sr2ScReO6,0.0
Sr2ScOsO6,0.0
Sr2ScIrO6,0.0
Sr2ScFePO3,0.0
Sr2ScCoPO3,0.0
Sr2Sb,0.0
Sr2RuO4,0.0
Sr2RuN3,0.0
Sr2ScFeAsO3,0.0
Sr2PrGaCu2O7,0.0
Sr2PrCu3(PbO4)2,0.0
Sr2NiWO6,0.0
Sr2NiTeO6,0.0
Sr2NiRuO6,0.0
Sr2NiOsO6,0.0
Sr2NiO3F,0.0
Sr2NiN2,0.0
Sr2P3Pb3O13,0.0
Sr2NiIrO6,0.0
Sr2NiClO3,0.0
Sr2NdTlCu2O7,0.0
Sr2NdTa(CuO4)2,0.0
Sr2Sm2TlNi2O9,0.0
Sr2P6Rh7,0.0
Sr2Pb,0.0
Sr2PrCoO6,0.0
Sr2Pr2TlNi2O9,0.0
Sr2Pr2Tl2Cu3O10,0.0
Sr2Pr2MnCuO8,0.0
Sr2P7Rh12,0.0
Sr2Pr2MgFe2(RuO6)2,0.0
Sr2PdPt,0.0
Sr2PdAu,0.0
Sr2Pb3,0.0
Sr2SmBeO5,0.0
Sr2Ti2Sb2OF2,0.0
Sr2Ti5Al17O38,0.0
Sr2Ti6O13,0.0
Sr2TiBiO6,0.0
Sr2TiCu2O7,0.0
Sr2TiFeO6,0.0
Sr2TiMoO6,0.0
Sr2TiRuO6,0.0
Sr2U4O11,0.0
Sr2U2O7,0.0
Sr2TmReO6,0.0
Sr2TmCu2(BiO4)2,0.0
Sr2TlPb,0.0
Sr2TlHg,0.0
Sr2TlCuO5,0.0
Sr2TlCd,0.0
Sr2TiSbO6,0.0
Sr2TlZn,0.0
Sr2Ti2Bi2OF2,0.0
Sr2TbCrO6,0.0
Sr2TbCoO6,0.0
Sr2TaVO6,0.0
Sr2SmWO6,0.0
Sr2SmTa(CuO4)2,0.0
Sr2SmNb(CuO4)2,0.0
Sr2SmCrO6,0.0
Sr2TbCu2IrO8,0.0
Sr2TbGeO6,0.0
Sr2Ti2As2OF2,0.0
Sr2TbZrO6,0.0
Sr2TbWO6,0.0
Sr2TbTiO6,0.0
Sr2TbGaCu2O7,0.0
Sr2TbSeO6,0.0
Sr2TbNiO6,0.0
Sr2TbIrO6,0.0
Sr2NdSmMn4O12,0.0
Sr2NdNb(CuO4)2,0.0
Sr2NdMnO6,0.0
Sr2LiO12,0.0
Sr2LiOsO6,0.0
Sr2LiPt,0.0
Sr2LiSi3,0.0
Sr2LiSiO4,0.0
Sr2LiTeO6,0.0
Sr2LiTi6N2O11,0.0
Sr2LiN,0.0
Sr2LuIrO6,0.0
Sr2LiV2(Si2O7)2,0.0
Sr2LiMgSi3,0.0
Sr2LiLaTaO6,0.0
Sr2LiInGe2,0.0
Sr2LaGaCu2O7,0.0
Sr2LaCu2HgO6,0.0
Sr2LaCu2(BiO4)2,0.0
Sr2LaCoO6,0.0
Sr2LaBeO5,0.0
Sr2La6TiCu3O16,0.0
Sr2LaMn2O7,0.0
Sr2La6Mn7CuO24,0.0
Sr2La3Ti2O10,0.0
Sr2La3FeCo4O15,0.0
Sr2La3Fe4CuO15,0.0
Sr2La6FeCu7O20,0.0
Sr2LiIn,0.0
Sr2LiGe3,0.0
Sr2LiGa,0.0
Sr2LiCd,0.0
Sr2LaMnCoO7,0.0
Sr2Li2Nb3O10,0.0
Sr2N,0.0
Sr2MoO4,0.0
Sr2MoN3,0.0
Sr2MnZn2(AsO)2,0.0
Sr2MnSnO6,0.0
Sr2MnRuO6,0.0
Sr2MnNbO6,0.0
Sr2MnN2,0.0
Sr2MnGaO5F,0.0
Sr2MnGaO5,0.0
Sr2MnCuSO3,0.0
Sr2NbSnO6,0.0
Sr2NdMn3O9,0.0
Sr2NdMn2O7,0.0
Sr2NdGaCu2O7,0.0
Sr2NdCu3(PbO4)2,0.0
Sr2NbCuO6,0.0
Sr2NdBeO5,0.0
Sr2Nd2TlNi2O9,0.0
Sr2Nd2MnCuO8,0.0
Sr2NdCu2RuO9,0.0
Sr2UCu2S5,0.0
Sr2MnCrO6,0.0
Sr2MnBiPbO6,0.0
Sr2MgMnSbO6,0.0
Sr2MgIn,0.0
Sr2Mg3In5,0.0
Sr2Mg17,0.0
Sr2Mg(TiS3)2,0.0
Sr2Mg(Cu2O3)2,0.0
Sr2MnClO3,0.0
Sr2MgReO6,0.0
Sr2MgRu3O10,0.0
Sr2Mn3(SbO)2,0.0
Sr2Mn3(BiO)2,0.0
Sr2Mn3(AsO)2,0.0
Sr2Mn2O5,0.0
Sr2MgTl,0.0
Sr2Mn2Cu(AsO)2,0.0
Sr2La3Fe4CoO15,0.0
Sr2UO4,0.0
Sr2VFeAsO3,0.0
Sr3Co2WO9,0.0
Sr3Co3N5,0.0
Sr3Co3O8,0.0
Sr3CoN3,0.0
Sr3CoRuO6,0.0
Sr3Cr2O8,0.0
Sr3Cr3N5,0.0
Sr3CrN3,0.0
Sr3CuIrO6,0.0
Sr3DyMn2O8,0.0
Sr3Eu,0.0
Sr3FeMoO7,0.0
Sr3Fe3N5,0.0
Sr3Co2TeO9,0.0
Sr3Fe2Cu2Se2O5,0.0
Sr3Fe2Ag2S2O5,0.0
Sr3Fe2(OF)4,0.0
Sr3EuRhO6,0.0
Sr3Fe2ClO5,0.0
Sr3Co2Cu2S2O5,0.0
Sr3Co2Cl2O5,0.0
Sr3CaIrO6,0.0
Sr3CaIr2O9,0.0
Sr3CaCo3CuO12,0.0
Sr3CaAl8,0.0
Sr3CaMn2FeO10,0.0
Sr3Ca5TiMn7O20,0.0
Sr3Ca5Ti3Mn5O24,0.0
Sr3Ca5Mn8O24,0.0
Sr3Ca5Mn8O23,0.0
Sr3Ca5Mn8O22,0.0
Sr3Ca5TiMn7O24,0.0
Sr3FeN3,0.0
Sr3CaMn2S2O5,0.0
Sr3Co2(ClO2)2,0.0
Sr3CeMn4O12,0.0
Sr3CdIrO6,0.0
Sr3CaTiMn3O12,0.0
Sr3CaTi3MnO10,0.0
Sr3CaSi8,0.0
Sr3CaRu2O9,0.0
Sr3CaNi2(WO6)2,0.0
Sr3CaNdMn5O15,0.0
Sr3Hg,0.0
Sr3LaTaAl3O12,0.0
Sr3LaTi2Mn2O12,0.0
Sr3Li,0.0
Sr3Li2,0.0
Sr3Li3(NiN)4,0.0
Sr3LiIrO6,0.0
Sr3LiTa4(O6F)2,0.0
Sr3Mg,0.0
Sr3MnBiO6,0.0
Sr3Mn4O12,0.0
Sr3Mn2O7,0.0
Sr3Mn2Cu2S2O5,0.0
Sr3MgRhO6,0.0
Sr3MgIrO6,0.0
Sr3LaMn4O12,0.0
Sr3La21Zn2(Cu5O24)2,0.0
Sr3La(NiO4)2,0.0
Sr3La(CuO2)4,0.0
Sr3La,0.0
Sr3IrN3,0.0
Sr3Ir2O7,0.0
Sr3La2Fe4CoO15,0.0
Sr3InNiO6,0.0
Sr3In11,0.0
Sr3In,0.0
Sr3Hg2,0.0
Sr3La2FeCo4O15,0.0
Sr3LaMn2O8,0.0
Sr3LaGaCo2O9,0.0
Sr3LaCuRuO8,0.0
Sr3LaCu2HgBiO10,0.0
Sr3La3Mn3RuO14,0.0
Sr3La9Mn11NiO36,0.0
Sr3La7Ti3Mn7O30,0.0
Sr3La7Ti2Mn8O30,0.0
Sr3La7Mn9FeO30,0.0
Sr3La7Mn7(FeO10)3,0.0
Sr3La7Ga(Co3O10)3,0.0
Sr3Ca5Mn8O21,0.0
Sr3Ca5Mn8O20,0.0
Sr2YCu3O7,0.0
Sr2YFe2O7,0.0
Sr2YFe3O8,0.0
Sr2YFeCu2O7,0.0
Sr2YGaCu2O7,0.0
Sr2YIrO6,0.0
Sr2YMgCu3O7,0.0
Sr2YMn2GaO7,0.0
Sr2YMn2O7,0.0
Sr2YReO6,0.0
Sr2YTi2AlO7,0.0
Sr2YTiCu2O7,0.0
Sr2ZnGa,0.0
Sr2ZnBi2,0.0
Sr2ZnAs2,0.0
Sr2Zn5Si3,0.0
Sr2YWO6,0.0
Sr2YTlNi2O7,0.0
Sr2YTlFe2O7,0.0
Sr2YTlCu2O7,0.0
Sr2YTlCr2O7,0.0
Sr2YTlCo2O7,0.0
Sr2Y2V2O7,0.0
Sr2Y2Ti2O7,0.0
Sr2Y2Cu2O7,0.0
Sr2Y2Cr2O7,0.0
Sr2VO4,0.0
Sr2VMoO6,0.0
Sr2YCoCu2O7,0.0
Sr2YCu2SnO7,0.0
Sr2YCu2BiPbO8,0.0
Sr2YCu2AgO7,0.0
Sr2YCrO6,0.0
Sr2YCu2BiO7,0.0
Sr2ZnIn,0.0
Sr2ZnP2,0.0
Sr3BiAs,0.0
Sr3Au2,0.0
Sr3Al2,0.0
Sr3Ag2,0.0
Sr3Ac,0.0
Sr32Mn32O79,0.0
Sr3(WN2)2,0.0
Sr3(VN2)2,0.0
Sr3Al2P(O2F5)2,0.0
Sr3(TiN2)2,0.0
Sr3Ca(CuO2)4,0.0
Sr3Ca(FeO3)4,0.0
Sr3Ca5Mn7FeO20,0.0
Sr3Ca5Mn4(FeO6)4,0.0
Sr3Ca5Mn4(FeO5)4,0.0
Sr3Ca5Mn3Fe5O24,0.0
Sr3Ca5Mn3(FeO4)5,0.0
Sr3Ca(CuO3)2,0.0
Sr3Ca5FeCo7O24,0.0
Sr3Ca5Fe5Co3O20,0.0
Sr3Ca5Fe5(CoO8)3,0.0
Sr3Ca5Fe4(CoO6)4,0.0
Sr3Ca5FeCo7O20,0.0
Sr3(SnIr)4,0.0
Sr3(RuN2)2,0.0
Sr3(AlIn2)2,0.0
Sr3(AlGe)2,0.0
Sr2ZrWO6,0.0
Sr3(AlSi)2,0.0
Sr2ZrCoO6,0.0
Sr2ZnReO6,0.0
Sr2ZnPt,0.0
Sr2ZrFeO6,0.0
Sr3(AlSn)2,0.0
Sr3(Cd2Ga)2,0.0
Sr3(OsN2)2,0.0
Sr3(NbN2)2,0.0
Sr3(LiSb)4,0.0
Sr3(GeN)2,0.0
Sr3(FeN2)2,0.0
Sr3(Cu2Sn)4,0.0
Sr3(CrN2)2,0.0
Sr3(CoN2)2,0.0
Sr2La2Tl2Cu3O10,0.0
Sr10Al4Si6O,0.0
Sr10CaY4(CoO3)10,0.0
Sr10Cu(RuO5)4,0.0
Sr10Cu5Bi10O29,0.0
Sr10Cu5Mo3(WO15)2,0.0
Sr10Cu5Mo4WO30,0.0
Sr10Fe10O29,0.0
Sr10Fe3Co2(MoO6)5,0.0
Sr10In17Au27,0.0
Sr10Li24NiN15,0.0
Sr10Mn(RuO5)4,0.0
Sr10Nb5N5O14,0.0
Sr11Sb10,0.0
Sr11Ru10O33,0.0
Sr11Hg54,0.0
Sr11Ga4Sn3,0.0
Sr(ZnSb)2,0.0
Sr11Bi10,0.0
Sr11Al4In3,0.0
Sr11(MgSi5)2,0.0
Sr11(GeN5)2,0.0
Sr11Al4Sn3,0.0
Sr(ZnGe)2,0.0
Sr(TlHg)2,0.0
Sr(SnHg)2,0.0
Sr(NiSb)2,0.0
Sr(NiP2)2,0.0
Sr(NiP)2,0.0
Sr(NiGe)2,0.0
Sr(NiAs)2,0.0
Sr(PPd)2,0.0
Sr(Ni5P3)2,0.0
Sr(Ni2Sn)2,0.0
Sr(Mo3S4)2,0.0
Sr(MnP)2,0.0
Sr(MnN)4,0.0
Sr(PRu)2,0.0
Sr(SiPt)2,0.0
Sr(SiPd)6,0.0
Sr(PRh)2,0.0
Sr(SbPd)2,0.0
Sr(Sb3Ru)4,0.0
Sr(SO4)2,0.0
Sr(RuO3)2,0.0
Sr(ReO3)3,0.0
Sr(SbRu)2,0.0
Sr(MnGe)2,0.0
Sr12Fe8O27,0.0
Sr12Sn4N3,0.0
Sr28In11,0.0
Sr2AgPt,0.0
Sr2Al,0.0
Sr2Al3Ge,0.0
Sr2Al3In,0.0
Sr2Al7Ge,0.0
Sr2AlBiO6,0.0
Sr2AlCoCu2O7,0.0
Sr2AlCu2AgO7,0.0
Sr2AlCu2BiO7,0.0
Sr2AlCu2NiO7,0.0
Sr2AlCu2SnO7,0.0
Sr2AlCu3O7,0.0
Sr2Ca2Fe(CoO4)3,0.0
Sr2Ca2Cu3(BiO5)2,0.0
Sr2Ca14Mn14Al2O45,0.0
Sr25Cl52,0.0
Sr2Bi3,0.0
Sr2B8Ru7,0.0
Sr2B4Rh5,0.0
Sr2AuN,0.0
Sr2As,0.0
Sr2AlGaCu2O7,0.0
Sr2Bi,0.0
Sr24Ta8O43,0.0
Sr24Fe16O55,0.0
Sr21In8Pb7,0.0
Sr16Cu8BC7O40,0.0
Sr15Fe10(Bi5O23)2,0.0
Sr14Nb19O57,0.0
Sr14Hg51,0.0
Sr14Fe14O39,0.0
Sr13Mn8O30,0.0
Sr13Al6Si8O,0.0
Sr13(MgSi10)2,0.0
Sr14MnAs11,0.0
Sr16Fe16O45,0.0
Sr16La3Co11(Cu4O23)2,0.0
Sr21Hg109,0.0
Sr21Fe14O47,0.0
Sr21Co14O43,0.0
Sr20Ta8O39,0.0
Sr2(PPd)3,0.0
Sr19Cu19O41,0.0
Sr18Fe6Ru3O34,0.0
Sr18Fe18O47,0.0
Sr2(GaAu2)3,0.0
Sr(MnAs)2,0.0
Sr(Mg4Al3)4,0.0
SnMo3,0.0
SnO,0.0
SnP,0.0
SnP3,0.0
SnPO4,0.0
SnPbO3,0.0
SnPbSe2,0.0
SnPd,0.0
SnPd2,0.0
SnPd3,0.0
SnSb3(PO4)4,0.0
SnSb,0.0
SnRh3,0.0
SnRh,0.0
SnPt3,0.0
SnPt,0.0
SnIr3,0.0
SnIr,0.0
SnI3,0.0
Sn9Pd13,0.0
Sn9Au4,0.0
Sn7Pd5,0.0
Sn7Ir5,0.0
Sn7Ir2Os,0.0
Sn5(Mo3S4)12,0.0
Sn7Ir3,0.0
SnSbPt,0.0
SnAu,0.0
SnHgO3,0.0
SnH4,0.0
SnBiO4,0.0
SnBi,0.0
SnAu5,0.0
SnTePbSe,0.0
SnTePd,0.0
Sr(FeS2)2,0.0
Sr(FeP)2,0.0
Sr(FeN)2,0.0
Sr(FeAs)2,0.0
Sr(CuSn)2,0.0
Sr(CuSi)2,0.0
Sr(CuSb)2,0.0
Sr(CuAs)2,0.0
Sr(Cu2Sn)2,0.0
Sr(CoP)2,0.0
Sr(FeSb3)4,0.0
Sr(GaH)2,0.0
Sr(La2Se3)4,0.0
Sr(InCu)2,0.0
Sr(GaAu)2,0.0
Sr(GeRu)2,0.0
Sr(GeRh)2,0.0
Sr(GeAu)2,0.0
Sr(GaRh)2,0.0
Sr(In4Ir)2,0.0
Sr2Ca2Fe3CoO12,0.0
Sr(AlPb)2,0.0
Sr(AlH)2,0.0
Sr(AlGe)2,0.0
Sr(AgSn)2,0.0
Sr(AlSi)2,0.0
Sr(AgGe)2,0.0
Sr,0.0
Sr(Ag2Sb)2,0.0
Sr(As2Rh3)2,0.0
Sr(AsPt)2,0.0
Sr(CeS2)2,0.0
Sr(CdGe)2,0.0
Sr(CdGa)2,0.0
Sr(BiPd)2,0.0
Sr(BRh)2,0.0
Sr(BIr)2,0.0
Sr(B2Pt3)2,0.0
Sr(AsRu)2,0.0
Sr(AsRh)2,0.0
Sr2Ca2FeCo3O10,0.0
Sr2Ca2Ga(CuO3)3,0.0
Sr2Ca2IrO6,0.0
Sr2Fe2Se2OF2,0.0
Sr2FeCoO6,0.0
Sr2FeCu2O7,0.0
Sr2FeCuSO3,0.0
Sr2FeIrO6,0.0
Sr2FeO3,0.0
Sr2FeO4,0.0
Sr2FeOsO6,0.0
Sr2GaBi2O7,0.0
Sr2FeSnO6,0.0
Sr2Fe2P3(O6F)2,0.0
Sr2FeSO3,0.0
Sr2FeRuO6,0.0
Sr2Fe(PO4)3,0.0
Sr2EuWO6,0.0
Sr2ErRuO6,0.0
Sr2ErReO6,0.0
Sr2ErGaCu2O7,0.0
Sr2ErCu3(PbO4)2,0.0
Sr2DyWO6,0.0
Sr2Eu2TlNi2O9,0.0
Sr2DyVO6,0.0
Sr2DyReO6,0.0
Sr2DyMnO6,0.0
Sr2DyGaCu2O7,0.0
Sr2DyCu2(BiO4)2,0.0
Sr2DySeO6,0.0
Sr2GaBiO6,0.0
Sr2EuBiO6,0.0
Sr2EuTaO6,0.0
Sr2EuTa(CuO4)2,0.0
Sr2EuSbO6,0.0
Sr2EuNbO6,0.0
Sr2EuGaCu2O7,0.0
Sr2EuFeO5,0.0
Sr2EuCu3(PbO4)2,0.0
Sr2EuCu2(BiO4)2,0.0
Sr2EuNb(CuO4)2,0.0
Sr2GaHg,0.0
Sr2La14Mg4Ga12O43,0.0
Sr2La14Mg4(Fe4O15)3,0.0
Sr2La14Mg2Ga14O45,0.0
Sr2IrO4,0.0
Sr2IrN3,0.0
Sr2InWO6,0.0
Sr2InReO6,0.0
Sr2InPd2,0.0
Sr2InHg,0.0
Sr2Ir,0.0
Sr2InBiO6,0.0
Sr2La2CrNiO8,0.0
Sr2La2FeCoO8,0.0
Sr2La2MnCuO8,0.0
Sr2La2CuRuO8,0.0
Sr2La2Mn4O11,0.0
Sr2La2MgRuO8,0.0
Sr2La2MgMnO8,0.0
Sr2La2Mg(RuO4)3,0.0
Sr2DyCrO6,0.0
Sr2In4Pt3,0.0
Sr2In3Rh2,0.0
Sr2GdRuO6,0.0
Sr2GdReO6,0.0
Sr2GdMnCrO7,0.0
Sr2GdCu3(PbO4)2,0.0
Sr2GdCu2RuO8,0.0
Sr2GdS3,0.0
Sr2GdCrO6,0.0
Sr2Gd2TlNi2O9,0.0
Sr2GdTa(CuO4)2,0.0
Sr2Ge2Pb,0.0
Sr2HoRuO6,0.0
Sr2HoReO6,0.0
Sr2HoGaCu2O7,0.0
Sr2GdWO6,0.0
Sr2HoCu2(BiO4)2,0.0
Sr2HfVO6,0.0
Sr2HfNbO6,0.0
Sr2HfCoO6,0.0
Sr2GeN2,0.0
Sr2CaSn5,0.0
Sr2CaTi6N2O11,0.0
Sr2CaTlCu2O7,0.0
Sr2CdAu3,0.0
Sr2CdPt2,0.0
Sr2CdSn,0.0
Sr2CeYCu2RuO10,0.0
Sr2CeSbO6,0.0
Sr2CeNbO6,0.0
Sr2CaReO6,0.0
Sr2CeMn3O9,0.0
Sr2CeFeO6,0.0
Sr2CeIrO6,0.0
Sr2CaPr3(CuO3)4,0.0
Sr2CaOsO6,0.0
Sr2CaO12,0.0
Sr2Ca6Mn5Fe3O20,0.0
Sr2Ca6FeCo7O24,0.0
Sr2Ca6Fe3Co5O24,0.0
Sr2Ca6Fe3(CoO4)5,0.0
Sr2Ca6Co7CuO24,0.0
Sr2Ca2MnFe3O10,0.0
Sr2Ca2Mn3FeO12,0.0
Sr2Ca2Mn3FeO10,0.0
Sr2Ca2Mn(FeO4)3,0.0
Sr2Ca2TiMn3O12,0.0
Sr2Co2O5,0.0
Sr2Ca6Mn7FeO24,0.0
Sr2CaNbO6,0.0
Sr2CaN2,0.0
Sr2CaMnO6,0.0
Sr2CaIrO6,0.0
Sr2CaFe2Bi2O9,0.0
Sr2CaCu2Bi2O9,0.0
Sr2Ca6TiMn7O24,0.0
Sr2Ca6TiMn7O20,0.0
Sr2Ca6Mn8O23,0.0
Sr2CaCu2Bi2IO8,0.0
Sr2Cu3O5,0.0
Sr2Cu3(BrO2)2,0.0
Sr2Cu2SnO7,0.0
Sr2Cu6P5,0.0
Sr2Cu2RuPb2ClO8,0.0
Sr2Cu2BiO7,0.0
Sr2Cu(SCl)2,0.0
Sr2Cu(PO4)2,0.0
Sr2CuAg2(SO)2,0.0
Sr2CuSeO2,0.0
Sr2CuSbO6,0.0
Sr2CuSO2,0.0
Sr2CuOsO6,0.0
Sr2CuO4,0.0
Sr2CuBiO6,0.0
Sr2CuO3,0.0
Sr2CuMoO6,0.0
Sr2CuGe2O7,0.0
Sr2CuCO5,0.0
Sr2Cu(BrO)2,0.0
Sr2CoO4,0.0
Sr2CoOsO6,0.0
Sr2CoN2,0.0
Sr2CoCuSO3,0.0
Sr2CoCu2O7,0.0
Sr2CoClO3,0.0
Sr2CoReO6,0.0
Sr2CrWO6,0.0
Sr2CrOsO6,0.0
Sr2CrO4,0.0
Sr2CrInO6,0.0
Sr2CrFeAsO3,0.0
Sr2CrClO4,0.0
Sr2CoWO6,0.0
Sr8Mg3Fe(MoO6)4,9.999999999976694e-05
Cd3Ga5O12,9.9999999999989e-05
ZnCuTeCl2O3,9.9999999999989e-05
TbCO4,9.9999999999989e-05
Dy8Ga3Co,0.0001000000000002
BaLiSnBiO6,0.0001000000000002
Li2YAl,0.0001000000000002
Cd12Ge17(B4O29)2,0.0001000000000002
SiSnN2,0.0001999999999995
Rb2Be3Co2F12,0.0001999999999999
LiPd2Au,0.0001999999999999
Nd2MgS4,0.0001999999999999
K5Na3Cu8(S2O9)4,0.0001999999999999
K5Nb3O3F14,0.0001999999999999
Ca2BiAu,0.0002000000000004
Ce16O27,0.0002999999999993
VB(PbO2)4,0.0002999999999993
K3Li3P6O19,0.0002999999999999
V9(P2O7)8,0.0002999999999999
Mg149P,0.0003000000000001
K10LiZr6H4O2F35,0.0003999999999999
Rb9Co2S7,0.0003999999999999
LiUBr4,0.0003999999999999
EuCrHO5,0.0004
KMg14CrO16,0.0004999999999997
Ru2S4Cl13,0.0005
Cd13(In13Se27)2,0.0005000000000001
Sr3CaTiMn3O10,0.0005000000000001
ZnHCO4,0.0005999999999999
Te3MoWSe,0.0005999999999999
CoPH3O4,0.0005999999999999
CdIn2O4,0.0007000000000001
KNaCaMg5(SiO3)8,0.0007000000000001
LiMn5(P2O7)4,0.0009
Ga3NO3,0.0009000000000001
Li5Mn2Fe3O10,0.0009000000000001
EuZr2SnO6,0.0009000000000005
YAgO3,0.0009999999999998
Ag8SnSe6,0.0009999999999998
MnZn4O5,0.0009999999999998
Ba2Fe3(P2O9)2,0.0010000000000001
Ni3Sb(PO4)4,0.0010999999999996
LiFeF3,0.0010999999999998
Ba4Cu3IO12,0.0011000000000001
Li3V2(CO5)2,0.0011000000000001
Na2Zr(CuS2)2,0.0011000000000001
Tb8Ga3Co,0.0011999999999998
Co2(PO3)5,0.0011999999999998
InGa(CuSe2)2,0.0011999999999998
KFePCO7,0.0011999999999999
CrSi(Ag3O4)2,0.0012
CaVFe(P2O7)2,0.0012000000000003
Mg149I,0.0012999999999996
V4Ge13O36,0.0012999999999996
Cs2Pr10Ru2I17,0.0013
MgIn2Ga2CuO8,0.0013000000000005
ZrAg2,0.0013000000000005
La7SmMn7FeO20,0.0013000000000005
Ba8(MnN3)3,0.0013999999999998
Li5GeN3,0.0014000000000002
Cu4SnS4,0.0014000000000002
K2TiF5,0.0015
FePSe3,0.0015
Ca19Mg(AsO4)14,0.0015999999999998
Li4Cr3Fe3(TeO8)2,0.0015999999999998
Sr4U2O9,0.0015999999999998
YWO5,0.0016999999999999
Ho5Sb2Pd,0.0017000000000004
Nb2ZnN4,0.0017999999999998
Li8MnFe7(BO3)8,0.0018000000000002
Pt3S3NO14,0.0018999999999999
AuCl4,0.0019
SnPbS2,0.0019
Cu2NO6,0.0019
Li4Co3Ni3(WO8)2,0.0019
Ca5Gd3Ti5Mn3O24,0.0019
Mg(BiO3)2,0.0019999999999997
Li9La12(SnO6)8,0.0020000000000002
Ga13Fe11O32,0.0020999999999995
Er8In3Co,0.0020999999999995
KMgV3Cu4O13,0.0020999999999999
Zn3As2H7O12,0.0020999999999999
Cs3(Cr5Se8)4,0.0020999999999999
Mg2Mo3O8,0.0021000000000004
LaZnFeCuO6,0.0021999999999993
Cu3Sb(PO4)4,0.0021999999999997
Rb7Fe7P8(HO9)4,0.0021999999999997
Sr5(CoN3)2,0.0022000000000002
K3Fe6F19,0.0022999999999999
K2PSO8,0.0022999999999999
Sr2MnGe2O7,0.0023000000000004
InGaCuAgSe4,0.0024000000000001
Na2LiFePCO7,0.0024999999999999
BaNaEu(SiO3)3,0.0024999999999999
Er3Ga2,0.0024999999999999
K3Na5VMo7O20,0.0025000000000003
Bi8Se9,0.0025000000000003
Ho6N8O33,0.0025999999999999
RbZr6BCl15,0.0026000000000001
Na5Cu3(PO4)4,0.0026000000000001
Mn3Cu(Te2O5)4,0.0026999999999999
K3Na2SnBi3,0.0026999999999999
Ba2Sr6Co5Cu3O20,0.0026999999999999
Ba(H2O3)2,0.0027
Tb6CoBr10,0.0027999999999996
LiTiCoF6,0.0028999999999999
Cu3(I3O10)2,0.0028999999999999
Ca4TiMn3O10,0.0028999999999999
K3Ce(PS4)2,0.0030000000000001
Na3LiSbP2O9,0.0030000000000001
SrPrNiRuO6,0.0030000000000001
CsAg5Se3,0.0030999999999998
CeIn3Pt,0.0031999999999996
Li2Mn2CoO8,0.0032
Li9V3P8O29,0.0032
Ho8In3Co,0.0032000000000005
Co3BPO7,0.0033000000000003
NdNO5,0.0033999999999999
Y6MgMn6O18,0.0034
Fe3Co2Sb(PO4)6,0.0034
Sb2Ru,0.0034999999999989
Y3Cu11Si4,0.0034999999999998
Eu2HfTiO6,0.0034999999999998
Rb2VHgF6,0.0035999999999999
Rb3(SO4)2,0.0036
BaCuH12(C2O7)2,0.0036
LiFe(PO3)5,0.0036
Ba17Al3O7,0.0036
Tb11(In3Ge2)2,0.0037000000000002
EuGdTi2O7,0.0037000000000002
SrCuAs,0.0038
NaEuHfNbO6,0.0038
Ce5(SiN3)3,0.0038
K2VHgF6,0.0039
Na5Ca7Zr2Ti2Si8(O5F)6,0.0039999999999995
Ba2NiRuO6,0.004
CsNb3SBr7,0.004
CaCuP4(RuO7)2,0.004
LiMn(PO3)5,0.004
CrAgSnSe4,0.0041000000000002
Ag4TeO5,0.0041999999999999
Sr2Al4Fe3P4(H2O13)2,0.0041999999999999
NaCoP2HO7,0.0041999999999999
BaSrEuWO6,0.0041999999999999
Na3CaFe4(SiO3)8,0.0041999999999999
Ca(InN)2,0.0041999999999999
Ba12MnRu5(ClO6)4,0.0043000000000001
Ho5(CoSn3)6,0.0043000000000006
LiCa2InGe2,0.0043999999999995
ZnCdTeSe,0.0043999999999999
K4Fe4(PO4)5,0.0043999999999999
LiDySn,0.0044000000000004
LiMn2P2O9,0.0044999999999999
Al2Te2Cl7,0.0044999999999999
TlCu2(AsO4)2,0.0044999999999999
Fe2(SO4)3,0.0045
NdInCu4,0.0045000000000001
Li4Co2Ni5O12,0.0045999999999999
Li4Fe2Ni3Sb3O16,0.0045999999999999
Na2VFeF7,0.0045999999999999
LiHo2Ag2(WO4)4,0.0046000000000003
Li2Cu4S3,0.0046000000000008
LiTi2Ni(PO5)2,0.0046999999999997
Ho3Cu11Si4,0.0046999999999997
CaNd2(CuO2)4,0.0047999999999999
RbSc(PO4)2,0.0048