formula,band_gap
Na15Ta11Zn(SiO4)18,3.3985000000000003
Ba6Gd2Ga4O15,3.3986
Na10Hf5Zn3Si6(SO8)6,3.3987
SmH13C8N6O13,3.3989000000000003
Li5LaO4,3.3999
NaHfTaSi2SO12,3.4003
K2NiP2O7,3.4003
Si11(H3C)21,3.4006
Na4Al3Ge3IO12,3.4006
NaZrTaSi(PO6)2,3.4006000000000003
Sr2CoSi2O7,3.4006000000000003
LiBH4C2(O3F)2,3.4009
Na14Zr4Si11Ge4SO48,3.4009
CsHS,3.4011
NbGaO4,3.4012
Na4AlSi2SnPO12,3.4021
MgNiO2,3.4026000000000005
Rb3In(PO4)2,3.4028
NaZnH2C3O7,3.4034
Na3LaZnP2SO12,3.4036
Sr2Al3FeO8,3.4037
NaBi(WO4)2,3.4038
B2AsCl2,3.4041
K2MgMn2P6(HO10)2,3.4043
Na5Ca2Zr2P5SO24,3.4044
MnH12N2(Cl2O)2,3.4053
Na2LaH2C5O11,3.4055000000000004
Na4Zr2Ta2Si5SO24,3.4056
NaNd(MoO4)2,3.4059
Sc2(TeO3)3,3.4061000000000003
LiCa2Mn2Si5HO15,3.4069000000000003
SbSO2F5,3.4071
Na6Ta3Ga(SiO4)6,3.4071
LiMo4P7O24,3.4073
PrSi3N5,3.408499999999999
Y2Zr2SiS5O24,3.4088
Ba2LuTaO6,3.4089
NbTl(BO3)2,3.4093
NaCO2,3.4095
Li4MnFe3(PO4)4,3.4096999999999995
Al2Ge2O7,3.4098
Sr2SmSbO6,3.4098
NaAs3(PbO3)4,3.4100999999999995
Nd4CdSi3O13,3.4103
Na3Mg3ZrPS5O24,3.4104
NaHSeO4,3.4107000000000003
Li2Si6Ni3O16,3.411
Sr3Ta2ZnO9,3.4116000000000004
H8C3N2O,3.4117
MgNb2O6,3.4118000000000004
MnGaH4O2F5,3.4119
RbY(WO4)2,3.4123
Na4Ga2Si2SO12,3.4128
AlSiCN,3.4136
NaCa2GeO4F,3.4144
ZnCdC4(SN)4,3.4148
Na7La2Ga2SiP5O24,3.4148
Na2Sr6ZnFe6F34,3.4149000000000003
LiMn10(PO4)7,3.4155
Pb2CO4,3.4158
Na4TeMo6H40(NO20)2,3.4168000000000003
Nd2Te2W2O13,3.4174
Na4Ca2La2SiS5O24,3.4177
Na7In2Ga2SiP5O24,3.4177000000000004
K2RbErV2O8,3.4178
NaZr2FeF11,3.4179
Na15MgTa11(SiO4)18,3.4182
Pr3TaO7,3.4185
Na7Bi3P12(Pb5O24)2,3.4189000000000003
MnH7C3NO6,3.4191
Th(TeO3)2,3.4195
Zr3TlF15,3.4196
Lu2GeO5,3.42
Si2Te(H3C)6,3.4202
Mg3B(HO2)3,3.4202000000000004
Na3LaZrSi(PO6)2,3.4205999999999994
Sr2ScTaO6,3.4213
NaCaH6Ir,3.4213
Ba6La2Ga4O15,3.4214
Na7Hf2Si5Ge2PO24,3.4214
SrNd2O4,3.4216
CsH2CO3,3.422
Na3ZrGaSi2SO12,3.4226
Rb2CrF5,3.4227
Cd4NiH20(ClO)10,3.4228
BaY3Cl11,3.4228
Na7Zn2In2P5SO24,3.4232
Na10Ca3Zr5(PO4)12,3.4232
Nb2CdO6,3.4237
Sr2HfZrO6,3.4242
SrFe2(PO4)2,3.4247
CsFeF3,3.4247
Na2InGaP2SO12,3.4249
Mn2H2SO5,3.4249
Sn(NO3)4,3.4252
TbWClO4,3.4255
MgZr3P2(SO6)4,3.4259
RbNdO2,3.4259999999999997
NaZnSiHO4,3.4269
Y4Ga2O9,3.427
Rb4Mg3H10,3.4271
NaMgZrP(SO6)2,3.4274
Na7CaY3Si3(SO8)3,3.4274
Y(WF5)3,3.4277
Na4CaMgSi(SO6)2,3.4277
Nd2Ge2O7,3.4278000000000004
Na10Mg3Zr5(PO4)12,3.4278000000000004
TmNbO4,3.428
Na10La4Mg4Si3(S3O16)3,3.4281
Na2Ca5Hf3(SO4)12,3.4282
NaTaGa(PO4)3,3.4283
ZnH20C4(N5O6)2,3.4283
Na6Hf8Si7S5O48,3.4294
LiGd(PO3)4,3.4298
MgMn3(P2O7)2,3.4299
Na3P3HO9,3.43
Na10La4Hf4Si7S5O48,3.431
NaLaZrP2SO12,3.4317
NaC2N3,3.4321
Na6Sn2B4SO16,3.4323
Na3Ca3ZrPS5O24,3.4326000000000003
SrAlSiN3,3.432899999999999
Rb2H2C2O5,3.433
TaGaP2SO12,3.4333
RbCaI3,3.4334
MnPb(SO4)2,3.434
ThH4(C2O5)2,3.4342
Na6La4Y4Si3(S3O16)3,3.4343000000000004
TlNiF3,3.4347
Na4YGaSi(PO6)2,3.4353
Sm(AlBr4)3,3.4356
SiB11H10C4F11,3.4362
Na8Y3TaSi4(PO12)2,3.4363
ZnSn(PO3)4,3.4370000000000003
Na6Hf3MgSi4(SO12)2,3.4372
Na10Zr5Zn3(PO4)12,3.4374
Ba2LaCl7,3.4376
Na6ZrZn7(SO4)12,3.4384
NiH20C4(N5O6)2,3.4401
BaSm2ZnO5,3.4403
Na2TeHSO5F3,3.4407
NaAl(MoO4)2,3.4421
KNaNdNbO5,3.4434
LiTcH6O7,3.4434
ZnSeO3,3.4441999999999995
RbIn3F10,3.4446000000000003
CsMgFeF6,3.4449
Mg14Ge5O24,3.4455
Na3TbV2O8,3.4461000000000004
AlTlI4,3.4464
Li7SbO6,3.4465000000000003
Rb3Na3Sc2(MoO4)6,3.4467
Na7Ca2Ga2P5SO24,3.4468
Rb2ScTlCl6,3.4475
RbEr(WO4)2,3.4478
NaAlI4,3.4482
RbSm(WO4)2,3.4483999999999995
Sc2(WO4)3,3.4491000000000005
Na3HfGaSi2SO12,3.4492000000000003
K3Pr2(NO3)9,3.4494
Na3Mg4CrSi8(O11F)2,3.4495
GaH13(C2N)2,3.4496
Na4CaZrSi2SO12,3.4503000000000004
NdPb7F17,3.4508
RbTa(BO3)2,3.4509000000000003
ZnCN2,3.4511
Na5Al3Sn(PO4)6,3.4512
Zn2TeMoO7,3.4519
LiScAs2O7,3.4519
Na6ScTa3(SiO4)6,3.4524
NdGaO3,3.4525
TbGd2Ga5O12,3.4534
KBaIn2(PO4)3,3.4535
NaSrInWO6,3.4538
Na2ZrGeO5,3.4539
Cs3NaLi2(BO3)2,3.454
SrLa2Sc2O7,3.4542
Li3SiSbCO7,3.4543
Na4La2Mg2SiS5O24,3.4543
LiMgAsO4,3.4544
NaPWO6,3.455
PrH16N7O19,3.4551
MgMnP2O7,3.4558
LiGePCO7,3.4558
CaPbF6,3.4559
Na5Sc2Ga2P5SO24,3.4571
SrCaNbInO6,3.4575
Na3LaZr3Si3(SO8)3,3.4576
Cs3In2Cl9,3.4584
Na2BSbSO7,3.4585
Na14Sc4Ta4Si11SO48,3.4592
ZnF2,3.4592
Cs2MnF4,3.4594
Na2TlGaF6,3.4599
Na4Y2Zn2SiS5O24,3.4599
NaScAs2O7,3.46
Na6Y2Al2Si3(SO8)3,3.4601
Mn3P4H2(PbO8)2,3.4619
Na3MgInP2SO12,3.462
Pr2Zr2O7,3.4620999999999995
RbNaTiO3,3.4624999999999995
ThSe2O7,3.4625
Sr2DySbO6,3.4626
Ba2DyPaO6,3.4628
SrLa2Cl8,3.4631
RbPr(WO4)2,3.4632
TlPb2Cl5,3.4637
Na4AlInSi(PO6)2,3.4645
Na10Mg4Al4Si3(S3O16)3,3.4653
LiP2WO7,3.4655
Li3Sm3(TeO6)2,3.4655000000000005
KEr(SeO4)2,3.4656
Li2Ca(SiN2)2,3.4658
MnH2(CO2)2,3.4661
Sb3O2F5,3.4665
Rb2LiTlF6,3.4666
Rb2NdH8N5O19,3.4667000000000003
Na3Sc2In2P3(SO8)3,3.4671000000000003
LiSb(PO3)4,3.4673
CrH17N4Cl2O3,3.4681
TmMoO4F,3.4681
Cs2ZrAl2(MoO4)6,3.4683
SrCa2I6,3.4686000000000003
Rb2PrH8N5O19,3.4687
NdClO2,3.4689
RbGd(PO3)4,3.4694000000000003
Rb6Te3P6(H13O20)2,3.47
Li6Sn2B4SO16,3.47
Na3PrV2O8,3.4705
Th2Te3MoO13,3.4705000000000004
Na6Zr3ZnSi4(SO12)2,3.471
Na8Hf3MgSi5SO24,3.4713
MgSiN2,3.4715
NdBr2Cl,3.4716
NaCaAl3(SiO4)3,3.4731
Na15CaTa11(SiO4)18,3.4731
CsSm(WO4)2,3.4736
ZnSi2NiO6,3.4739
Ba3Sc(BO3)3,3.4742
Cs2Li2GeO4,3.4744
Li7PN4,3.4744
Na6YTa3(SiO4)6,3.4752
Na4ZnCd(SiO3)4,3.4754
Na3Zr3InSi3(SO8)3,3.4755000000000003
Na2CaHfSi(SO6)2,3.4756000000000005
Pb2CO3F2,3.4765
Na3Ta2Si3Ge2(PO8)3,3.4769999999999994
Na2BiPCO7,3.4772000000000003
NdSi3N5,3.4773999999999994
NaZrScSi(SO6)2,3.4774
SrNi2P2(H2O5)2,3.4774000000000003
Te2P2O9,3.4783
Na10Ta7Al(SiO4)12,3.4792
Na2ZnFe(PO4)2,3.4799
Sn3(PO4)2,3.4799
Na2BiAsCO7,3.4803
Na7Zr2Si5Sn2PO24,3.4810000000000003
Tl2CoP4(HO2)8,3.4811
Li6Ni5(P2O7)4,3.4812
Rb2LaBr5,3.4819
NaCdF3,3.482
NaZr2CoF11,3.4826
ThH10N4O17,3.4827
Rb2CoP4(HO2)8,3.483
Sr4Br6O,3.4836
SnH18C6Br3N,3.4837
Nd3Sm(GaO3)4,3.4841
NaIn(WO4)2,3.4845
RbTa(GeO3)3,3.4846
Na8Hf3ZnSi5SO24,3.4846000000000004
Rb2CdP2O7,3.4851
Rb2Ti(Si2O5)3,3.4853
Na3YGa(PO4)3,3.4856
MnSi2O5,3.4858
Na3Mg2Ga2PS5O24,3.4862
Na3Al2(AsO4)3,3.486800000000001
NaZrZnP(SO6)2,3.4873
ZrSiO4,3.4877
Li8GeO6,3.4877
SrCaSn(PO4)2,3.4879999999999995
LiMg6AlO8,3.4881
Na2SnCSO7,3.4883
MnH8N2(OF2)2,3.4884
RbSmO2,3.4884
SrTb2Sc2O7,3.4884
NaVH2(OF2)2,3.4885
NaIn(SiO3)2,3.4885999999999995
Rb3AsCl6,3.4887
SbSO2F7,3.4888
NaGaBr4,3.4888000000000003
K2ZnSiO4,3.4889
W7(OF5)6,3.4889
NaLaMgWO6,3.4890000000000003
ZnH2N2O7,3.49
RbAlO2,3.4902
BeH8(NO5)2,3.491
Ta2BeO6,3.4918000000000005
Ba2NdV3O11,3.4925
Na3Sc2(BO3)3,3.4934000000000003
H9BrO4,3.4937
Sc2Te(SeO5)2,3.4939
Na2CaZrP2SO12,3.4943
Na2MnP2O7,3.495
LiHS,3.4957000000000003
Zn2Si3Pb4SO15,3.4961000000000007
LiMn2P3O10,3.4963
Na7Y3ZnSi3(SO8)3,3.4964000000000004
PCN2Cl3,3.4967
Na14Mg4Al4Si5S7O48,3.4971
NaGa(WO4)2,3.4971
YNbO4,3.4975
MnH6(CO3)2,3.4977
Si4SbH38C14Cl,3.4978
K2NdAgCl6,3.4986
ZnTeO3,3.4996
Sr3(GaO3)2,3.5
Na10Y4Mg4Si3(S3O16)3,3.5002000000000004
CaMoO4,3.5007
Nd4GeO8,3.5008
Li5P2N5,3.5008000000000004
Mg3CoB8P8(H8O13)4,3.5011
Na7Zr2Zn2SiP5O24,3.5011
SrAlH5,3.5013
Zn3(AsO3)2,3.5015
K2LiP3HO9,3.5018
Na3NdV2O8,3.5022
Na5Y(MoO4)4,3.5023
LiLa(MoO4)2,3.5025000000000004
Na7Al2Si3Ge2(PO8)3,3.5026
Zr2Al2SiS5O24,3.5027000000000004
YMoO4F,3.5035
Sm2SCl4,3.5037
Rb3GaCl6,3.5038
Sm3SOF5,3.5041
Sr2Mn3P4(HO8)2,3.5041999999999995
Li3P3(WO6)2,3.5045999999999995
K2Be2Zn2Si3O11,3.5047
InH5(NF)2,3.5049
CsNd(WO4)2,3.5051
Sr6La2Ta3Al5O24,3.5058000000000007
Na2LiBiCl6,3.5061
Na3B5S9,3.5062999999999995
Na6Ta3In(SiO4)6,3.5068
SmTl(MoO4)2,3.5068
Ba2TbSbO6,3.5072
Sr2ScSbO6,3.5074
Li5Sb2P5O18,3.5081
Sb11F43,3.5093
ZrGeO4,3.5095
VZn6P3O16,3.5098
TlBrO3,3.5098000000000003
MgH12(NO6)2,3.5098000000000003
Na8Ti5O14,3.5098000000000003
Na3BSbPO7,3.5102
Si3Bi2O9,3.5103
Na2Ta2(P2O7)3,3.5105
W5(O2F11)2,3.5107000000000004
Na3YZr3Si3(SO8)3,3.5108000000000006
Sr2LaTaO6,3.5116
K3Sm2(NO3)9,3.5116
Ta2Zn3O8,3.5117
Sr6Al12Bi2O27,3.5117000000000003
Li3Nd2H6(N3O10)3,3.5123
Na14La4Sc4Si7S5O48,3.5124
SbH32C8N4Cl7,3.5129
Na10Ca4Y4Si3(S3O16)3,3.513
As2PHBr3F11,3.514
Na2Hf3Mg5(SO4)12,3.5146000000000006
Na2Sc4Zn2(MoO4)9,3.5152
Li3P5(WO6)4,3.516
CaSn4(PO4)6,3.5179
Rb2Li3GaO4,3.5182
NaMgIn(SO4)3,3.5185000000000004
ZnH3CNO3,3.519
Na5Ca6Nd5Zr16O48,3.5193
RbLa(SeO4)2,3.5194000000000005
Sr3Ga2Cl2O5,3.5201
NaLa(MoO4)2,3.5204
Na2Sn(S2O7)3,3.521
Na7Zr2Si5Ge2PO24,3.5211999999999994
Na2Th(MoO4)3,3.5214
SnSO4,3.5219
Li3Tb3(TeO6)2,3.5219
RbLaO2,3.522
Na5La3HfSi3(SO8)3,3.5225
Na2La2Y2SiS5O24,3.5225
Ac2O3,3.5226
Nd3Ga5SiO14,3.5227000000000004
Rb2BiMoPO8,3.523
SrTa4O11,3.5232
Na14Ca4Al4Si5S7O48,3.5233
LiTePO5,3.5236
PrBrO,3.5244
Na10Zr4Al4Si7S5O48,3.5245999999999995
MgCd(CO3)2,3.5248
Tm(IO3)3,3.5250000000000004
LiPPbO4,3.5252
Na8HfZn3(PO4)6,3.5263
Zn3P2Pb3WO14,3.5264
Li5NiP3O11,3.5265000000000004
NdBMoO6,3.5265000000000004
BiSeClO3,3.5272
MgMoO4,3.5272
Na2FePO4F,3.5279
Na4LaHfSi2PO12,3.528
ZrB2O5,3.5293
Na2AlSn(PO4)3,3.5294
Na3Mg3Ga(SO4)6,3.5297
SiPb4(ClO)4,3.5302999999999995
MnH8C3(NO3)2,3.5307
ThH6(NO5)2,3.5309
Sc2(MoO4)3,3.5309
SiAg2(S2O7)3,3.5310999999999995
Na6La2Al2Si3(SO8)3,3.5313
Li4Ni(PO4)2,3.5314
Pr3W(ClO2)3,3.5317
Na2Si2S5,3.5318
Si(H3C)2,3.5325
LiPrO2,3.5331999999999995
Na4LaYSi2SO12,3.5341000000000005
Na3InGa(PO4)3,3.5346
Na4Sn3F10,3.5349
Cs2TeO3,3.5352
RbFe3P3(O4F3)2,3.5354
TmTaO4,3.5355
SrSeO4,3.5358
YB3H18C2S,3.5362
Rb2Cd3H10S4O21,3.5367
YH7C4O11,3.5367
Si3Ge2(H3C)11,3.5375
Na4ScTa(SiO4)3,3.5375
Na3Ta2Si3Sn2(PO8)3,3.5386
Er3GaO6,3.539
PbS2O3,3.5394
LiAl(CN2)2,3.5404
PAuClF3,3.5407
Na4TaAl(SiO4)3,3.5408
Na5LiFe2P2(CO7)2,3.5416
NaLaZn(SO4)3,3.5418
Na10Hf4Mg4Si5S7O48,3.5419
Sr3TaHO6,3.5421
BaIBr,3.5423
CdH6(NCl)2,3.5424
Na2Ni2(B4O7)3,3.5425000000000004
Ba(IO3)2,3.5436
Sr4Al6WO16,3.5441000000000003
Ca3Al4ZnO10,3.5447
Sr2TmTaO6,3.5449
Na3CaLaSi(SO6)2,3.5454000000000003
Sm2BeGa2O7,3.5466
Zn(AsO2)2,3.5466999999999995
Na2CaPb3(CO3)5,3.5468
Nd2H6Se7O20,3.5475000000000003
Mn3Al2(SiO4)3,3.5477
Ni2BiB(PO5)2,3.5479
SrLaTl(AsO4)2,3.5481
Na4ScInSi(PO6)2,3.5483
ScAsO4,3.5491
Na4MgZrSi2SO12,3.5494000000000003
Na3AlZnSi(SO6)2,3.5500000000000003
TmAsO4,3.5505
TlGaBr4,3.5506
Na3LaMgSi(SO6)2,3.551
NaMg3Al(MoO4)5,3.551
NaLi2NiPCO7,3.5529
Ba6Ho2Ga4O15,3.5531
Na5LiNi2P2(CO7)2,3.5531999999999995
La2Ge2O7,3.5542
NiH4SeO5,3.5548
Na6CaHf7Si6(SO8)6,3.5554
NaZrGaP2SO12,3.5557
Sr2GdTaO6,3.5570000000000004
Na7ZnGa3(PO4)6,3.5573
LuWClO4,3.5573
K3GePCO7,3.5577
Na3LiTi2Si4(HO4)4,3.5603
Ta2Cd(P2O7)3,3.5607
Na4LaAlSi2SO12,3.5607
ReSb(OF4)2,3.561
NaZr3Ta(PO4)6,3.5611
NaSc(GeO3)2,3.5612000000000004
Na14Hf6Mg2Si9(SO16)3,3.5616000000000003
MoP3Pb2O11,3.5617
NaMg3Si3HO10,3.5623
SrCaNi(PO4)2,3.5626
Li2Fe5(PO4)4,3.5628
NaMgAlH18(C2O7)3,3.5646
Sb2SNF11,3.5649
NaGa2P(SO6)2,3.565
SnCl4,3.565
Na3YIn(PO4)3,3.5651
Pr3TiCl5O4,3.5656
Na3MoNO3,3.5662000000000003
Tb2(MoO4)3,3.5663
Na3Y(BO3)2,3.5665000000000004
Mg2H2O3,3.5667
Li2V(SO4)2,3.5672
Li7Mn(BO3)3,3.5681000000000003
Na6Hf7MgSi6(SO8)6,3.5687
Rb2Zr(MoO4)3,3.5691
LiFeP2H5O9,3.5691
Na2ZrTaSi2PO12,3.57
LiTaSiO5,3.5714
SnB4O7,3.571999999999999
NaMgGa3(SO4)6,3.5721000000000003
Cs3PO4,3.5723
Na10LaTa7(SiO4)12,3.5726
TaInO4,3.5727
Rb2LaAgCl6,3.573
Rb2SbF5,3.5733999999999995
Na6Ca6Hf2SiS11O48,3.5737
ZnH7C4N3O7,3.5737
Rb2Th3Mg(MoO4)8,3.5741
Nb5H50C12(NO7)3,3.5747
Mg5H8O9,3.5747000000000004
PrAlGe2O7,3.575
ZnSb2P2O9,3.5751
Nd3Ta(Cl3O2)2,3.5751
FeP4O11,3.5754
Tl3SiF7,3.5757
NaScInP(SO6)2,3.5761000000000003
S(ClO)2,3.5768
Na4Al3Cr(P2O7)4,3.5769999999999995
Nd3Ho2(GaO4)3,3.5775
Na10Sc7Ta(PO4)12,3.5775999999999994
Sr9TmV7O28,3.5778
Sb4F15,3.5793
PrTaO4,3.5794
Pr(C2N3)3,3.5795
SmNbO4,3.5797
SrH10Pb2Br6O5,3.5798
Na3P2H4O7,3.5798999999999994
MnH4S(NO2)2,3.58
ZnGaP2H4NO8,3.5802
SrAlSi4N7,3.580400000000001
NaTeH6O6F,3.5809
Zr25Sc6O59,3.5813
Ba2NdSbO6,3.5815
Mg3NF3,3.5818
Na2ZrNi(P2O7)2,3.5821000000000005
LiMg10AlH24,3.5822
Li3GdO3,3.583
Na4Mg2Al2SiS5O24,3.5832
ScH7(NO5)2,3.5835
CsK2TlF6,3.584
ZnSi3GeH35C13ClO,3.584
Li2Sn(PO3)4,3.584
Rb2YTlBr6,3.5841000000000003
Na6CaZr3Si2(PO6)4,3.5844000000000005
CsP4N7,3.5845
Na7Mg2In2P5SO24,3.585
NaMgBO3,3.5852
NaY2Al2PS5O24,3.5853999999999995
Sr4I6O,3.585500000000001
Mn9Al8Fe3(SiO4)12,3.5858
Li4SiGe3O10,3.5859
Na14Y4Sc4Si7S5O48,3.5863000000000005
Tl3GeF7,3.5864000000000003
MgGaH5,3.5867
Rb2TeO3,3.5879
Li4BH10N3,3.588
Li5GaO4,3.5894
SrHI,3.5902
RbMg30GaO32,3.5902000000000003
InH3(IO4)2,3.5905
Mg2BiPO6,3.5905
Na10Y4Hf4Si7S5O48,3.5905000000000005
SrTiH4(OF3)2,3.591
YWClO4,3.5918
NaSnPHO4F,3.5919
Ba4SrHf5O15,3.5926
Rb2Al2Sb2O7,3.5936000000000003
Tb2(WO4)3,3.5942
Y3Sc2(GaO4)3,3.5945
Na4HfZnSi(PO6)2,3.5948
Rb2Zn2(MoO4)3,3.5953
Sb7F29,3.5953
SbH24C6(NCl2)3,3.5956
ZnH4(BrO)2,3.5964
NaNi2H3(SO5)2,3.5968
Mg3Fe(SiO4)2,3.5972
PNCl2,3.5985
MgP4(Cl5O3)2,3.5985
LiCO2,3.5989
Nd2BeGa2O7,3.599
Pb(NO3)2,3.5995
Pr2(MoO4)3,3.6007
Nd4Ga2O9,3.6013
Na4ZrZnSi(PO6)2,3.6021
NdAlGe2O7,3.6023000000000005
Rb3Ta5O14,3.6027000000000005
Sm(IO3)3,3.6031
Nd5As4(ClO4)3,3.6034
Li6B3SbO9,3.6036
Sr2MgGe2O7,3.6039
Na7MgGa3(PO4)6,3.6041
Sr3Ca6V7BiO28,3.6044
K7P6H2NO22,3.6047
Na10Ta7In(SiO4)12,3.6052
Na10YTa7(SiO4)12,3.6052
Na3Zr3AlSi3(SO8)3,3.6052
Cs6Na2Nb6H36O37,3.6053
Tb3GaO6,3.6054
ZrCl4,3.6058
LiSc(GeO3)2,3.605900000000001
NaNd9(Ge3O13)2,3.6061
Na2LiSbF6,3.6063
Na8Hf2Ga2Si5SO24,3.6063
Ga2Mo(SeO5)2,3.6065
Sm2Se5O13,3.6065
ScClO,3.6069
Na7CaAl3Si3(SO8)3,3.6073
ZnC4(NO3)2,3.6077
Sr2Zn3Te2(PO7)2,3.608
Na5Zr3ZnSiP5O24,3.6084
Rb2SeO4,3.6085
SrTiSi2O7,3.6085
Na2TaSi2SnPO12,3.608800000000001
Ca3Al4Si8(ClO12)2,3.608800000000001
Na7Al12Si12H6ClO48,3.6089
Cs2LaAgCl6,3.6099
Na6MgZr3Si2(PO6)4,3.6107999999999993
Na2Zn(SiO3)2,3.6116
Na4La2Hf2Si3(SO8)3,3.6119
Tm(HO)3,3.612
K2SeO4,3.612
Dy3SOF5,3.6131
LiTl3(MoO4)2,3.6132
CrPb2F7,3.6136
Zn(H15N8)2,3.6138
Na3Sc2Ga2P3(SO8)3,3.6143
Na8La2Hf2Si5SO24,3.614500000000001
MgFeF5,3.6151
Zr3Sc4O12,3.6151
NaReO4,3.6152
K3SmSi2O7,3.6153
KNd2NbO6,3.6157
Rb2Th(MoO4)3,3.616
KSc(MoO4)2,3.616
K2TlInF6,3.6161
B10H13Cl,3.6163
SrLiTa2O6F,3.6165
SrSn(BO3)2,3.6178
ZrMnH10O5F6,3.618
K2LiBiCl6,3.6182
NaErGeO4,3.6183
LiFeP3(HO5)2,3.6183
Ca4Al6O13,3.6188
H4CSN2Cl,3.6188
Mn3Al4FeP4(H4O7)4,3.619
Na3Zr3ZnP5SO24,3.6195
Li4Fe(PO4)2,3.6195
Na2HfTaSi2PO12,3.6208
RbNa2Mn3P4ClO14,3.6209
NaPr3Ge4O13,3.6216
Na5Zr2Ga2SiP5O24,3.622
LaClO2,3.6221
Na4Hf2Al2Si3(SO8)3,3.6226
KGe2(PO4)3,3.6226
Ba6Sm2Ga4O15,3.6226
MgSn(BO3)2,3.623
Na4H6Se2O11,3.623
Na3Li3Fe2F12,3.6235
ScTl(MoO4)2,3.6236
Na10Hf4Ta4Si11SO48,3.6238
KScO2,3.6241
P3H4N5Cl4,3.6244
MgFe2S2(O4F)2,3.6246
P2SN2(Cl3O)2,3.6248
RbHoO2,3.6251
LiAl(MoO4)2,3.6252
SmAlGe2O7,3.6256
SbF5,3.6256
Na2HfMgSi(SO6)2,3.6257
Na5Lu(MoO4)4,3.6258
LiLaO2,3.6258
Pr3Lu2(GaO4)3,3.6264
Rb2Sb2OF10,3.6265
Zn2P2O7,3.6266
KMn6P7O24,3.6268
Na8HfMg3(PO4)6,3.6269
NaFePH2(CO3)2,3.6274000000000006
DyAsO4,3.6275
MnAlPH4O7,3.6275
Mg(ReO4)2,3.6278
Rb2NaTlF6,3.6281
Pr3GaO6,3.6286
KBa2Zn3B9O19,3.6287
Na7Mg2Zr2SiP5O24,3.6294
Na4Ga3Si3IO12,3.6294
Na4HfMgSi2SO12,3.6297000000000006
Ca3(AsO4)2,3.6298
Na8CaZr3Si5SO24,3.6301
Na3BiBPO7,3.630100000000001
Na4Mg2Si(SO6)2,3.6311
Pb(C2N3)2,3.6314
LiSm(WO4)2,3.6314
NaLuGeO4,3.632000000000001
Na4CaHfSi(PO6)2,3.6323
Ba(NO3)2,3.6327
Li2ZnSiO4,3.633
H11C4Br2N,3.6335
Na3ZrZn3PS5O24,3.6336
Na4Zr(MoO4)4,3.6338
NaAsO2,3.6341
Rb2H8O5,3.6342
TlIn(MoO4)2,3.634700000000001
YBrO,3.6348
Na2CdCl4,3.6352
TbGaO3,3.6356
Na6Ta8Si11SO48,3.6359
LiN3,3.6364
Nd(C2N3)3,3.6366
Na6Ca4Sc4SiS11O48,3.6366
Na5Ca2Sc2P3(SO8)3,3.6372
SrZnH6O5,3.6372
Na8Zr2Ga2Si5SO24,3.6376
Sc2Se3O10,3.6378
Cs2Al2Sb2O7,3.6378
Na10Ca2Hf6Si7S5O48,3.6383
NaSi5N7,3.6384000000000007
KNaLaNbO5,3.638700000000001
Er6Si11N20O,3.6389
RbTaGeO5,3.6393
Rb2ZnBr4,3.6395
Sr(AlS2)2,3.6396
Na3Sc(BO3)2,3.6398
SrBi2(B2O5)2,3.6402
Na2Ga2Si3(HO3)4,3.6402
KBaVO4,3.6403
Na3LaV2O8,3.6404
LiFeP(H6O5)2,3.6405
K2Mn(SeO3)2,3.6409
AlAs(H2O3)2,3.6412
LiTaGeO5,3.6414
LiZr2(AsO4)3,3.6422
TeP6H30(NO4)6,3.6423
NaLa(SeO3)2,3.6423
Na3Zr3GaSi3(SO8)3,3.642300000000001
SCl2O,3.6424
SrH2I2O,3.6429
Na5Hf2In2SiP5O24,3.6435
MgZn2H12(BrO)6,3.6444
Sr2HoSbO6,3.6445
Na4LaScSi2SO12,3.6449
Na3VO4,3.6451
ThCl4,3.6452
Na4ZrInSi2PO12,3.6457
H8Se2N2O5,3.646
Ca2MgWO6,3.646
Rb2PrAgCl6,3.6461
Tl2SbF5,3.6463
Zr5Sc2O13,3.647
KRb2CO3F,3.647
P2Pb2O7,3.6475
Ba6NaNd(SiO4)4,3.6476
LuAlO3,3.6479
K2SiO3,3.6483
Na10Sc4Al4Si5S7O48,3.6483
Ba2PrSbO6,3.6484
Na3NiPCO7,3.6486
Na2MoSeO6,3.6489
KSr2I5,3.6493
CsLa(WO4)2,3.6495
Ba2WO3F4,3.6497
PrH10N(ClO4)2,3.6505
Nd3GaO6,3.6505
Na2CaScP(SO6)2,3.6507
La2(MoO4)3,3.6508
Na10Sc8Si5S7O48,3.651
Cs2ScAgF6,3.6511
KH8WN2(OF)3,3.6514
Nd2(WO4)3,3.6516
Ba(AlS2)2,3.6517
Na2LaScSi(SO6)2,3.6534
NiH8(IO5)2,3.6538
Rb2NdAgCl6,3.6549
BaSn(HO)6,3.656
Na4Hf2(GeO4)3,3.6565
Na7Zr2In2Si3(PO8)3,3.6567
MgNi3(P2O7)2,3.6574
K2ZnBr4,3.6576
TaTl(GeO3)3,3.6578
Ba6Pr2Ga4O15,3.658
Cs4Si3O8,3.658
La3Mg2TaO9,3.6583
BaH4(IO)2,3.658300000000001
PrIO,3.6584
K3FePCO7,3.6584
SmAsO4,3.6586
K5Mo4O14F,3.6587
BiH(SeO3)2,3.659
Zn2FeP2(H2O3)4,3.659
NdNbO4,3.6592
Rb2TlInF6,3.6593
Na7ZrZn3P5SO24,3.6596
YAsO4,3.6598
NdAg(PO3)4,3.6603
NaLi3GeO4,3.6606
Li3Nd3(WO6)2,3.6606
Li3Fe(Si2O5)3,3.6606
Ba5Zn2B4(O6F)2,3.660600000000001
BaH2I2O7,3.6607
Rb2Th(NO3)6,3.6611
Zn4P3H7(NO6)2,3.662
KIn2F7,3.6621
Cs6Ti2O7,3.6622
Cs2Al2As2O7,3.6622
Na10La4Sc4Si5S7O48,3.6623
LiCaTa2O6F,3.6629
SrCaHfSnO6,3.6634
CaGaBiB2O7,3.6637
ZnH8C2S2(IN2)2,3.6644
Na4Ni5(P3O11)2,3.664400000000001
Ba4Zn4B14Pb2O31,3.6652
Na2ScGaP2SO12,3.6652
LiAlH16(CN)4,3.6662
Na7Ca2Zn2P3(SO8)3,3.6665
SrTb2O4,3.6672
Rb3SbF6,3.6672
K3NaTh2O6,3.6675
Na8Ca3Hf(PO4)6,3.6687
Na2Th(AsO4)2,3.6688
HoBrO,3.6688
K2YAgCl6,3.6689
Ti(NO3)4,3.6689
Na6Ca2Mg2SiS5O24,3.6694
NaHf2Ga2P3(SO8)3,3.6696
Ca12Be17O29,3.6699
Mg2BN2Cl,3.6701
Na3Zr2Ta2Si3(PO8)3,3.6702
RbSr2I5,3.6702
TbTaO4,3.6704
Mn4P4O13,3.6706
Na8La2Zr2Si5SO24,3.6707
Na6MgZr7(PO4)12,3.670700000000001
LiIn(SiO3)2,3.672400000000001
CsOsC3(ClO)3,3.6727
Rb2YInF6,3.673
KSi2N3,3.673199999999999
Sb2OsC4(OF3)4,3.6738
Na4HfZn3SiS5O24,3.6738
NaInH12(SeO7)2,3.6739
Rb2Ga2B2O7,3.6745
Na7Hf3Ta(SiO4)6,3.675
Sr3LaCl9,3.6752
Na7Y2In2SiP5O24,3.6753
Ca2Al2SiO7,3.6756
Na3La5Cl18,3.6774
CsH4CN3,3.6774
Na5Ga4P5SO24,3.6774999999999993
KLaSi(CN2)4,3.6776
CaZrGeO5,3.678
Sr9LuV7O28,3.6781
Na2LiMn(PO3)5,3.6781000000000006
Li3FeF6,3.6786
K2AlSn(PO4)3,3.6794
Sm3GaO6,3.6796
TbAlGe2O7,3.6797
NaAlInP(SO6)2,3.6801
Na5Lu(SiO3)4,3.6802
LiLa(WO4)2,3.6807
Rb2LuAgCl6,3.681
Zn5P4H12C2(NO8)2,3.6811
Na3YZrSi(PO6)2,3.6818
Si4MoH36C12(NO)2,3.6819
NiP2(PbO4)2,3.682
SrCa3La2(SbO6)2,3.682700000000001
Rb2ZnH12(SeO7)2,3.6833
Li4VO4F,3.6834
SnPO3F,3.6834
Li6Mn5(P2O7)4,3.6838
LiNd(WO4)2,3.6841
Na2H18SO9,3.6843
BeTlAsO4,3.6851
Sc2Ge2O7,3.6855
Na4Y2Si2SO12,3.6871
NaMgZr3P3(SO8)3,3.6872
ScSeO3F,3.6881
P3Pb5O12F,3.6883
KMgSb(PO4)2,3.6885
CsIn(MoO4)2,3.6886
Na14Sc8Si7S5O48,3.6888
LiGaCl3,3.6888
ZrMn2H12(O3F4)2,3.6889
K2CdH2C8(N3O4)2,3.6893
Sr3LaC2N4F5,3.6896
Li3In(BO3)2,3.6904
Pr4Se3(O5F3)2,3.6908
Li3VO4,3.6916
La3Tm2(GaO4)3,3.6918
Ca2YAs(WO6)2,3.6919
Ba2B2O5,3.6927
Mn3B7IO13,3.6928
NaMgH2C3O7,3.6929
NaLa4PS5O24,3.6929
Rb2FeF5,3.693
La3Ga5SiO14,3.6931
RbLuO2,3.6931
Sr3Er2(GeO4)3,3.6934
ZnHIO4,3.6937
Na5Mg5In3(SO4)12,3.695
Na2ZrGe2O7,3.695300000000001
InSi4H39C14O,3.6954
KZnF3,3.6954
Na6Y8Si3(S3O16)3,3.6955
Na3TaSi3SnO12,3.6974
Rb2LiFeF6,3.6976
Rb4Th(MoO4)4,3.6984
Rb3InCl6,3.6985
ZnMo2O7,3.6987
Tm2(WO4)3,3.6992
CsPr(MoO4)2,3.6994
TlCdF3,3.7002
Na3Ga4P3(SO8)3,3.7004
La2SiC(NO2)2,3.700600000000001
Li4Ni3P4O15,3.7007
Sr2NdTaO6,3.7008
Na7Al3ZnSi3(SO8)3,3.701
Pm2O3,3.7016
LiCa3Zr3TaO12,3.7017
Sm3Y5O12,3.7025
Sr7(H6Br)2,3.7026
SrSeO3,3.7027
Cs2NaVO4,3.7034
BaSn(PO4)2,3.7035
Na14La4Zr4Si9(SO16)3,3.7045
Li2Hf2O5,3.7045
FePH5NO4F,3.7068
K2ZnN12,3.7076
Al2CdCl8,3.7082
KZn2BCl2O3,3.7082
P2H27C10N4Cl,3.7096
Tb(HO)3,3.7101000000000006
SmZr6(PO4)9,3.7105
Sm(HO)3,3.7105
La2Al4O9,3.7106
Na2Ca3Ta2O9,3.7107
ZnSb2Cl2O3,3.7109
Ba2YMn2F11,3.7118
Zn3P2(H2O3)4,3.7118
CsK2LaV2O8,3.7121
PrAsO4,3.7124
RbH4CN3,3.7127
PrZr6(PO4)9,3.7127
Ba2Ti(GeO4)2,3.7129
Fe3P2(H2O3)4,3.7133
AsSe(ClF2)3,3.7139
ZnH12S2(NO2)4,3.7142
Sr(NO3)2,3.7142
GaTeO3F,3.7146
ZnSnF6,3.7147
Na7Sc3ZnSi3(SO8)3,3.7147
BaMgFeF7,3.7147
Na7Ga4SiP5O24,3.7148
RbZnPO4,3.7149
SrFeF5,3.7149
KNaLaTaO5,3.7151
CaFe(Si2O5)2,3.715100000000001
Rb4Nb2Si8O23,3.7154
InH6(ClO)3,3.7155
KBa2I5,3.7158
SrSn(HO)6,3.7165
Pr2C(NO)2,3.717
Na2AlGaSi(SO6)2,3.717
Na7CaZr3Si3(PO8)3,3.717400000000001
Na4Ca3HfSiS5O24,3.7179
NaCaZrFeSi2O8F,3.7187
Tm2Ge2O7,3.7188
BaSrY4O8,3.7193
Na2ZnBr4,3.7194
GaSi2As(H3C)8,3.7194
Rb3Cd(BO2)5,3.7196
MgZr4O9,3.7198
Na5Ta3Si6SnO24,3.7205