formula,band_gap
ZnCdSe2,0.6544999999999999
Na2AgSb,0.6549999999999998
VCr(P2O7)2,0.6553000000000001
RbP11,0.6557000000000004
Mg2In3MoS8,0.6558999999999999
Li6VCoP2(CO7)2,0.6558999999999999
Li4V5(P3O11)2,0.6559999999999997
Mg4SnN4,0.6562000000000001
Li7MnN4,0.6562000000000001
Te2Br,0.6562999999999999
LiSi3H27C9N2,0.6568
SnTe5Pb4,0.657
NaLaSe2,0.6571000000000002
Na2Cu2Si5(H3O8)2,0.6571999999999998
Pr2Cu(GeO4)2,0.6574
V4S9Br4,0.6574
ZnCdTe2,0.6574
Rb2USi2O9,0.6575000000000001
Na2CuP,0.6575000000000002
Tb5C2Br9,0.6579000000000002
LiTiCrSO8,0.6586
NaNd(SeO5)2,0.6589
Y2Hg2O5,0.659
NaAg3O2,0.6596
Si3P3Rh,0.6598999999999995
Li7V(O2F)2,0.6600000000000001
V2Fe(CuO2)3,0.6603000000000003
Li5Mn2CrO8,0.6608
ReTe2,0.6616999999999997
SrCaVWO6,0.6616999999999997
LiMg6CrO8,0.6619000000000002
Zn4In2O7,0.6619999999999999
NaLaEuWO6,0.6625000000000005
SrFeO2F,0.6625999999999999
LiUI6,0.6631999999999998
VZn2SbO6,0.6647999999999996
Ti6Tl5AgSe27,0.6648000000000001
Y2Br3,0.6648000000000001
Na10CaSn12,0.6648999999999998
TaSbRu,0.665
NaGe,0.6651999999999998
YCr3O9,0.6657
TmAgTe2,0.6658
ZnCoF6,0.6667999999999998
Mn3(SeO3)4,0.6671000000000001
Mg30ZnCrO32,0.6672000000000002
Tm2Cu(GeO4)2,0.6673
Zn(MoO3)2,0.6673
Lu2Cu(B2O5)2,0.6675
Na3CrSiBO7,0.6675000000000002
Na6Ca2Si3Sn2(SO8)3,0.6677000000000004
Rb2AgMoBr6,0.6687
MgTa2CuO7,0.6687000000000001
Li7V7P6(O8F)3,0.6689999999999996
Li5Mn3O5F3,0.6690999999999998
Mg3Cu3(AsO4)4,0.6692
MoC3S2Cl7O,0.6692999999999999
Tl3GeTe3,0.6694
Rb2Te3,0.6694999999999998
Li4Ti3V3Cr2O16,0.6695000000000002
Sm2Cu(GeO4)2,0.6698000000000004
Sr2UMnO6,0.6699999999999999
Mn4Si7,0.670300000000001
TeAsRh,0.6703999999999999
Y6PtI10,0.6705999999999994
Nd6F17,0.6712999999999996
Sr6La4Zn3(RuO10)2,0.6715
Sr2SmUO6,0.6715999999999998
LiCo2(BO3)2,0.6716
TeBr2,0.6717
Ti2P2O10F,0.6719
P4Os,0.6720999999999995
Mg(InS2)2,0.6720999999999995
Li7CrO6,0.6721
MgHg4(MoO4)2,0.6722999999999999
MgNbV3O8,0.6724000000000001
LiV2H4(OF5)2,0.6728000000000001
Tb2Cu2O5,0.6729999999999996
VCrP2(HO5)2,0.6735000000000002
MnSbS2Br,0.6737000000000002
ThSnPt,0.6738
Sc3InS6,0.6738000000000008
YCo3F15,0.6741000000000001
LiV2O3F,0.6742000000000004
Li5V5O9F,0.6745999999999999
Na2O,0.6750999999999999
N2O5,0.6751
Li4MnCr3O8,0.6756000000000002
ThTe3,0.6758999999999995
TiV4CoO12,0.6760999999999999
Sr5As3H,0.6763999999999997
Li4V8O13F3,0.6770999999999998
VZn2WO6,0.6772
V2Re2O11,0.6779
UCoO4,0.6779000000000002
Na2V2O5,0.6781999999999999
Na2Cu2(B4O7)3,0.6782000000000001
MnV3(PO4)6,0.6786000000000001
Na3NpH2Se2O11,0.6789999999999998
Th6CoBr15,0.6793
ScAgSe2,0.6794000000000002
LiV6O7F5,0.6795
Ta2Pt3S8,0.6797000000000004
MgAgAsO5,0.6807000000000001
Rb2SnAs2,0.6809999999999998
RbAgO2,0.6814
RuXeF7,0.6824999999999997
SmGdS3,0.6825000000000001
Zn3Cu6(AsS3)4,0.6826999999999996
LiV3P5O19,0.6828
Rb2InSbBr6,0.6828999999999998
LiCuHSO5,0.6832
Na7Ca3NbSi3(SO8)3,0.6838999999999997
Na2LiGaAs2,0.6841999999999997
SrCaPrFeO6,0.6846000000000001
Nd2MgNb2O8,0.6846000000000005
RbSb3Se5,0.6848999999999998
SrLiSb,0.6857999999999995
LiP5W3O19,0.6863000000000001
Li4V3Cr2O10,0.6863999999999995
Zn5(GeN3)2,0.6863999999999999
Na3OsN2,0.6867000000000001
Li3V4(OF3)3,0.687
Li4V3Cr3(SnO8)2,0.6871
Pr3InSe6,0.6879000000000004
LiCr4P7O24,0.6884000000000001
MnZnSiO5,0.6890000000000001
Li7OsO6,0.6890000000000001
W3(Se2S)2,0.6892
TmCu(MoO4)2,0.6894999999999998
Na2Fe2P2O8F,0.6897
MgNiBiO5,0.6899000000000002
Zn3(GaTe3)2,0.69
NaV8O20,0.6900999999999999
RbMg14AlO16,0.6901000000000002
PdS2O7,0.6903999999999999
SrNdCoO4,0.6907000000000001
Mg30CrSiO32,0.6909999999999998
Rb2NdCuF6,0.6911999999999998
TeAsOs,0.6915999999999993
LuTlO3,0.6919000000000004
Na2In2Sb3,0.6920999999999999
Li4V5Cr3O16,0.6927000000000003
UN2,0.6927000000000003
Mg6MnNiO8,0.6932
PtI4,0.6934
Na6Ca16Ta8Si3(S11O48)3,0.6937
Rb2AgMoI6,0.694
Li4Y3MnO8,0.6954
Nb3N5,0.6958000000000002
Na10Mg4Si5Ge4S7O48,0.6959999999999997
Lu2Cu(GeO3)4,0.6964999999999999
Li4Ti3Mn3Nb2O16,0.6972
NaVF3,0.6978
Zn4CuN3,0.6981999999999999
Zr2Cu3H32(O8F7)2,0.6984
Li4MnCr(WO6)2,0.6985999999999999
SrCuH4(CO2)4,0.6988
ZrTl2PbSe4,0.6989999999999998
Re4Ge7,0.6991000000000005
LiCr3O8,0.6994
Li3P,0.6996000000000002
LiCo3P4O15,0.6998000000000001
Ti3FeNi2(PO4)6,0.6998000000000002
NdLuS3,0.7004999999999999
Mg4Mn5(TeO6)3,0.7005999999999997
Rb2CuSbI6,0.7008000000000001
Sm3CuSe6,0.7010000000000001
Sr3Fe2MoO9,0.7011000000000003
Sr3GaAs3,0.7012
Nb3TeCl7,0.7027000000000001
Li9Co9O17,0.7031999999999998
Lu2CdSe4,0.7033000000000003
SmTlTe2,0.7035999999999998
Tb2Ti2S2O5,0.7039
Mg30MnCrO32,0.7039000000000009
Pr5S2N3Cl2,0.7040000000000002
Rb4CuSi2O7,0.7041
NaCa2Sn2PS5O24,0.7042
Li4MnV3(PO4)4,0.7046000000000001
MgV4(OF2)4,0.7050999999999998
TlSbPbS3,0.7052
Li3NbP3O11,0.7053000000000003
Mn3V2Cr3O16,0.7056
Sr2TaNO3,0.7061999999999999
TeSe,0.7062000000000008
Sm31(CuSe16)3,0.7063000000000006
NbTe2(SeI3)2,0.7070999999999998
Te2Cl,0.7073999999999998
SnSb4S7,0.7078999999999995
MgCu4Ag2(PS4)2,0.7084999999999999
Sm3InSe6,0.7092999999999998
NaCu(PO3)4,0.7094
SrLiLa3FeO8,0.7097999999999995
Tl5Se2I,0.7101999999999995
MgV4Sb2(PO4)6,0.7107999999999994
Sr(CdP)2,0.7109000000000001
NdTlTe2,0.7119
Sr2CoCO3F5,0.712
Mn2Si5N8,0.7123999999999997
MgV2(Ga2O5)2,0.7127000000000008
LiNbS2,0.7134999999999998
SiAg5O4,0.7138000000000002
Na2MgCu2TeO6,0.7141000000000002
LiCa7(GeH)3,0.7149000000000001
Nd9Ga5Se21,0.7149999999999999
Na6Sn4Ge5O22,0.7150999999999998
Sn4TeSe3,0.7153
Sr2FeO3F,0.7155
TlInO2,0.7159000000000004
MnBiSe2I,0.7160000000000002
Tb2Cu(GeO3)4,0.7162000000000002
Na2Ti2Se9,0.7175
Ni(C2N3)2,0.7175999999999999
Na2Te2O7,0.7191000000000001
Rb2AlTlH6,0.7191999999999998
Na5SnAs3,0.7194000000000003
MgCd2(CoO3)2,0.7195
Tb(CuTe)3,0.7199
Lu2S3,0.7199
Pr2ZrSe5,0.7200999999999995
Sr4FeMoO8,0.7205999999999997
Pr9Ga5Se21,0.7210000000000001
Sr2NbWO6,0.7211999999999996
MgTi2(Fe2O5)2,0.7214999999999998
Na2Al2Sb3,0.7215999999999996
V2Se9,0.722
NaMn(SiO3)2,0.7222999999999997
MnSe3O8,0.7225999999999999
Na6Mg4Nb4Si5S7O48,0.7226000000000001
Li3MnSi2O7,0.7233999999999998
Na2Mg4Nb4Si3(S3O16)3,0.7235
Sr2LiLa2RuO8,0.7240000000000006
TbTlTe2,0.7241999999999997
TlAgS,0.7244999999999999
NaWO4,0.7245
Tl2CuH12(SeO7)2,0.7248000000000001
Zn2InCuS4,0.7250999999999999
LiCa11Sb9,0.7256999999999998
SmMg2Cr3S8,0.7258
RbSb2Au3S5,0.7259000000000002
Na2AgAs,0.7266000000000001
YTlTe2,0.7266000000000004
LiMnP2(HO4)2,0.7271000000000001
LiNb6Cl19,0.7273000000000001
Mg2V2CuO8,0.7275
LiAg3O2,0.7277999999999998
Li5Mn5(SeO3)8,0.7279
Rb2Bi4Se7,0.7279999999999998
SrSmCoO4,0.7280000000000002
MgMn5O9F,0.7281
MgP4,0.7289000000000003
Mn2P2H7NO10,0.7290000000000001
Sr2GaSbO6,0.7291000000000003
Y6Ge2O13F3,0.7295
Li4MnO3F,0.7303
Mg(Fe2O3)2,0.7306999999999997
NaH4Au(Br2O)2,0.7311
NaErCu2F8,0.7312
MgV3O6,0.7313000000000005
ZnP2W2O9,0.7317
LiNbSe2,0.7318999999999996
Li6MnAlO6,0.7321
MgV3CrO10,0.7322000000000001
V3OF11,0.7323999999999997
Mg30NbSiO32,0.7324999999999999
Rb2CoCl4,0.7331000000000001
SmRhO3,0.7331000000000003
Li4Ti3Cr3(FeO8)2,0.7337000000000002
SrCu2GeS4,0.7338000000000005
LiCo5SbO8,0.7338999999999998
N2O3,0.7343
Mn2P4O13,0.7345999999999999
LiCr2(MoO4)3,0.7350000000000001
Sr4Mg(Fe2O5)2,0.7350999999999996
Li4VFe3O8,0.7353000000000001
Rb2NaCuF6,0.7354
LiV3Fe2CuO12,0.7355
MnBiS2Br,0.7358000000000002
TmTlO3,0.7359999999999998
Na2MnSiCO7,0.736
Na6CaSi4Ge3(SO12)2,0.7364000000000002
RbCdGeAs2,0.7365000000000002
ZrIN,0.7367999999999997
Sm2Co2O5,0.7379999999999995
WO3,0.7382000000000001
SrPrMnNbO6,0.7382999999999997
Mg2AsO5,0.7383000000000001
MgMnV3O8,0.7390000000000001
MgMnSiO5,0.7393000000000001
Na4CdP2,0.7394999999999999
MgV8Ge4(O2F)8,0.7397
NaGdHf2O6,0.7399999999999998
TlIn5S7,0.7404000000000002
Li6Cu(B2O5)2,0.7405999999999999
V2Fe3Sb(PO4)6,0.7406999999999999
V18Cu2O45,0.7408
Tl9SbSe6,0.7409999999999997
Sr3Ca(Fe2O5)2,0.7409999999999997
Re6Te7Se8,0.7410000000000001
LiMnCO4,0.7424999999999999
Li8Bi2PdO10,0.7427000000000001
Li3TiMn3O8,0.7431999999999999
TmTlTe2,0.7435999999999998
Mn2Nb2ZnO9,0.7442
Nb3SBr7,0.7444000000000002
MgH32(N2O)4,0.7445
Nb3O7F,0.7446999999999999
LiEu2CBr3N2,0.7450999999999999
NaCaNbSi(SO6)2,0.7451000000000001
ZnCu2(MoO4)2,0.7454000000000001
Na2Ca2Si3Ge6(S3O16)3,0.7454999999999998
PrCuSe2,0.7454999999999998
PrTl2InTe4,0.7455000000000007
Na2Zn3Sn(SO4)6,0.7456999999999998
Na3Sr3GaP4,0.7466999999999997
Li4Ti3Co3(NiO8)2,0.7469000000000001
V18Ag7O48,0.7470000000000001
Sr5Re3IO15,0.7471999999999999
Na2V2CuH4(OF)6,0.7481
MnCr3(PO4)4,0.7484000000000002
Tl5In3Se8,0.7484999999999999
Sr(GdSe2)2,0.7486000000000002
TbMn2O5,0.7486999999999999
Rb2GaAs2,0.7494999999999998
Na3H12Ru2(C2O9)2,0.7499999999999999
UFeO4,0.7501999999999995
Mg2Nb2SiS5O24,0.7504
Na3MgCu2SbO6,0.7505999999999995
Zr3AgHg3F20,0.7516999999999998
LiAuI4,0.7517999999999998
Pr4Te3N2,0.7522000000000002
SnB6,0.7525000000000004
NdCuSe2,0.7529000000000003
Sr3(SnAs2)2,0.7529999999999997
NaLiMnPCO7,0.7532
Sm2Mg(BiO4)2,0.7532000000000001
Na3NbN2,0.7538
SrWN3,0.7544
LiLa2FeO6,0.7546999999999997
Si(Ag4S3)2,0.7551000000000001
LiMnSnO4,0.7551999999999999
TlGeBr3,0.7555999999999998
MgMn2Tl2O6,0.7559000000000005
ReP4,0.7559000000000005
Rb2AgAu3I8,0.756
Na14Mg6Ti2Si5S7O48,0.7560000000000002
SmEu2TaO6,0.7560000000000002
NaCaTiBiO6,0.7563999999999997
Tl2OsCBr2OF3,0.7567999999999999
Li3V3SbO8,0.7570999999999994
UNi7(BO4)4,0.7572000000000001
W(BrO)2,0.7579
Na7Ca2SiGe2P5O24,0.7585
Mn9Zn3O16,0.7589999999999999
ZnCrBiO5,0.7590000000000003
Nd2S3,0.7595999999999998
MgMn3V2O10,0.7602000000000002
Y2Cl3,0.7606999999999999
Li3V6N11,0.7609000000000001
U2CuAs2(HO)24,0.7613000000000001
Sr2ZnCu2(SO)2,0.7614999999999998
MgSbN(OF3)2,0.7621
MgV4(O3F2)2,0.7622999999999998
MoP2PbO8,0.7630000000000003
MgNb2V2O10,0.7631000000000001
Na4FeO3,0.7631000000000001
Y(CuTe)3,0.7632000000000003
Sn2W3Cl14,0.7636000000000003
Li4Ti3Mn4(CoO9)2,0.7639999999999998
Sr3Fe2(SeO3)6,0.7642
MgZn2MoWO6,0.7645999999999997
MgCr4(PO4)4,0.7650999999999999
V3Co(PO4)4,0.7652999999999999
Na6Ni3B9P6H3O38,0.7654
Na6V2O7,0.7654000000000001
LiMn6PO12,0.7654000000000001
Li8Ti2O7,0.7655000000000003
Rb4Zr3Te16,0.7655999999999996
Na8MgMn2O8,0.7665
Na6Sc6Nb2Si5S7O48,0.7667999999999999
MgCr2(NiO4)2,0.7668999999999997
LiBiO2,0.7669999999999999
Tb3CuSe6,0.7672000000000003
Nd4Te3N2,0.7672999999999996
LiMn2P2(H2O5)2,0.7675999999999998
Rb7NbAs4,0.7678999999999998
Sr2Sb2Se3O2,0.7681999999999998
Na6MnO4,0.7683
Sr2AlGaCo2O7,0.7689999999999997
NaNi2P3O10,0.7697000000000003
Te3(PdBr)4,0.7702
Na5V4(PO4)6,0.7703999999999998
MgMo2(WO6)2,0.7705000000000002
NdTl2InTe4,0.7706000000000008
Nb3Cl5O2,0.7713999999999999
NaSi2BO7,0.7714
MgV4O10,0.7715000000000001
Li4Nb2Cr3Co3O16,0.7717999999999998
Pr2AlNO3,0.7722999999999995
RbAlCu(PO4)2,0.7723
Rb2Mn(TeS3)2,0.7723999999999998
LiTe4H4(O3F4)2,0.7726999999999999
Li8CrS6,0.7727999999999999
Na10Zn3Si6Ge5(SO8)6,0.7728999999999999
Zn2Cr5(PO4)6,0.7738
NaLaSiSn(SO6)2,0.7739000000000003
Nb2Se9,0.7746999999999997
Rb3AuF6,0.7746999999999999
Li5La4TiNb7O28,0.7748999999999997
LuCu(BO2)5,0.7753999999999999
MgV4(PbO6)2,0.7755000000000001
RbReCl4,0.7757999999999999
Na2La2In2SiS5O24,0.7764
LuZn4FeO7,0.7772000000000001
MgMnO2,0.7773000000000003
Sn2S3,0.7774000000000001
MgMn3NiO8,0.7776000000000001
Nd2Mg(BiO4)2,0.7783000000000002
Na4CuP6(H4O11)2,0.7785
MgI8(OF2)12,0.7785
Li4Mn7O16,0.7791000000000001
Mg14VCdO16,0.7793000000000001
TeI,0.7793000000000001
Li5Mn7O16,0.7793000000000001
Ti3MnV2(PO4)6,0.7793999999999999
TeRhCl,0.7797000000000001
Sm2Ti2S2O5,0.7798999999999996
Na6Mg2Si5Sn6S7O48,0.7799999999999998
Mg2Mn3O8,0.7802000000000002
Rb2CuP4(HO2)8,0.7803
NaCrSe2,0.7807999999999997
Sr3(GeAs2)2,0.7808999999999999
Sb6Pb6S17,0.7809999999999997
TbEu2TaO6,0.7809999999999997
Na6FeCl8,0.7812999999999999
Ti3MnFe2(PO4)6,0.7815000000000003
Li4MnF8,0.7818999999999998
Li3V5O8,0.7822000000000005
VFe3(CuO2)4,0.7823000000000002
TcCl4,0.7828999999999999
SbRuSe,0.7829000000000006
VO2F,0.7834
Li4Nb3Co3(TeO8)2,0.7834999999999996
TiTeRu,0.7860999999999994
Na18Nb4Zn20Si3(S11O48)3,0.7860999999999998
Li3Nd2(N3O10)3,0.7861999999999999
Mn3Sb5(IO3)3,0.7864000000000004
MgMnV4O12,0.7866
Mg3SiO5F,0.7868999999999999
NaBe3Al2Si6O19,0.7872000000000003
NiH6(NCl)2,0.7874000000000001
Zn2SbWO6,0.7875999999999994
SiPtSe,0.7878999999999996
Tl2SnHgSe4,0.7879
Y2Ti2S2O5,0.7881
Na3V6N11,0.7884
NaTe,0.7888000000000002
Na2CuH4(C2O5)2,0.7893000000000001
Sr6Bi2O11,0.7894000000000001
Pr2Mg(BiO3)4,0.7897999999999996
RbAsO4,0.7898999999999999
Mg5ZnN4,0.79
Na2Zn2SiSn2S5O24,0.7900999999999998
SmMgCrS4,0.7901000000000002
Nd2MnCrO6,0.7902
Li4Ti2Mn3Co3O16,0.7902
Rb2GaAuF6,0.7904
Sr5(AlSb3)2,0.7905999999999995
V12PbO30,0.7913999999999999
Mg6VFeO8,0.7917999999999994
SrTiN2,0.7925999999999997
ZnHg3Se3Br2,0.7927
Li7Ni(O2F)2,0.7928000000000001
Zr3Sb4Pt3,0.7934000000000001
Zr6CI14,0.7934999999999999
Mg2Cr2(SiO4)3,0.7938000000000001
NaAl6Fe3Si6B3H3O30F,0.7949000000000002
MoSBr,0.7949999999999999
Na2FeO4,0.7953
Tl32Si8O37,0.7955000000000001
ZrSO,0.7956000000000003
Ta4P4S29,0.7957000000000001
SrCaV2O6,0.7961
TiZnP3WO12,0.7962000000000002
ScMn3(BiO3)4,0.7962999999999996
Na5FeS4,0.7966
SrP2,0.7968999999999999
Nd2VFeO6,0.7975000000000003
Li8Nb2S9,0.7982999999999998
Na2Sb4O11,0.7989000000000006
Pb3(IO6)2,0.7997999999999998
MgV4(PO5)4,0.8005
Mn(SiO3)2,0.802
LiFe(CO3)2,0.8021
Li3MnV4O8,0.8022999999999998
Na3Mg(CoO2)5,0.8024999999999998
Rb4Cu8(GeS4)3,0.8026
MnH30C6Se5N6,0.8027
Li4V2Co3Sb3O16,0.8033999999999999
SrCuF4,0.8036
Sr2NbSbO6,0.8047000000000004
Sr7SnN6,0.8056999999999999
P2Pd2O7,0.8063000000000002
Li4V3Fe3(WO8)2,0.8064
Li3VS4,0.8067
Sm(ErSe2)3,0.8068999999999997
NaSrAs,0.8069999999999999
TeAuBr8,0.8075
TeRuSe,0.8076000000000008
SrZr7N10,0.8078000000000001
Rb5Au3O2,0.8081
Li4V3FeO10,0.8085
PrV2O6,0.8094000000000001
Pr16(Mo3O8)7,0.8094000000000001
LiP,0.8094999999999999
NaBC,0.8095999999999997
Li4V3FeO8,0.8097000000000003
Rb2Ni(PS3)2,0.81
Y4(Cu2O5)3,0.8103
Li4Ti5Fe3O16,0.8104999999999998
Na3PH24SO15,0.8104999999999999
Sr3InP3,0.8115999999999999
Ti3Nb2Cr3O16,0.8117999999999999
VFe(P2O7)2,0.8122999999999999
Li4Ti2Nb3Co3O16,0.8127
NaCuPH8C2SO8,0.8129000000000001
ReH8(Br3N)2,0.8133
Sr4GeAs4,0.8140000000000001
Zn4Fe5(P3O14)2,0.8141000000000003
Li6Mn2O5F2,0.8142
MgAs4,0.8144
LiMn3P2(HO3)4,0.8147000000000002
SiH6CI3N,0.815
RbF3,0.8151000000000002
Na10Ca6Ti2Si3(S3O16)3,0.8151999999999999
Sm2ReO5,0.8152999999999997
Mn2Cr3Sb3O16,0.8158000000000003
Na2Sc2In2SiS5O24,0.8163
VCu3Se4,0.8164000000000002
SmCuSe2,0.8167999999999997
Na2Zn2Si3Ge6(S3O16)3,0.817
ScZnCu3Se4,0.8176999999999999
MgCu2SiSe4,0.8180000000000001
Li6Fe2P(CO4)4,0.8184000000000002
Li3V5O12,0.8186
Sr2SnH18(SeO3)4,0.8187999999999998
TmAgS2,0.8188999999999997
Na2CuH6C2O9,0.8191
Na2V9MoH35(N2O19)2,0.8195999999999999
NbI3O,0.8196000000000001
Na3NpO8,0.8201
VFe2(CuO2)3,0.8204000000000002
Sn4Te3Se,0.8209999999999997
V2CuH14C2N2(OF2)4,0.821
Ti4(FeO4)3,0.8216000000000001
MgSc2(FeO3)2,0.8216999999999999
LiGeSbTe3,0.8220000000000001
SeBr2,0.8221
VO,0.8225000000000007
MgV3SnO8,0.8227000000000002
ScCu3HgSe4,0.8228
Sr7ZrN6,0.8233999999999999
Li3V2FeO6,0.8235000000000001
Ti3V5O16,0.8235999999999999
TeO3,0.8240000000000003
TbCuSe2,0.8242000000000003
Na2CaSiSn(SO6)2,0.8249
VFeP2(HO5)2,0.8250000000000001
TeAsRu,0.8250000000000002
Nd2Ti2S2O5,0.8252999999999999
LiFe2F6,0.8256999999999999
LiGe3SbTe5,0.8269000000000002
MgMn2Te2(MoO6)2,0.8273999999999999
RbGdS2O9,0.8274999999999999
Na5Mn3F14,0.8281
Li47(CoO4)8,0.8284
Sr(ZnP)2,0.8285999999999998
NaMnP2O7,0.8287
Zn(InTe2)2,0.8291
ThMo2O9,0.8298
RbNaB4H4O13,0.8300000000000001
Mg2Nb10Si9(SO8)9,0.8326
Na2TiZn3(SO4)6,0.8330000000000001
Li7V16(PO4)24,0.8331999999999999
Na4PuH7O9,0.8335
SrSnS3,0.8335999999999997
NaHfCuWO6,0.8338999999999999
Na2CoAsCO7,0.8344999999999999
Sb3Au2Xe2F19,0.8347
Na4Al3Si3NO13,0.8347000000000002
SrCaTiMnO5,0.8357999999999999
MgBi4(WO6)2,0.8359000000000005
Rb2Se5,0.8362
NaMgNiIO6,0.8365000000000005
Tl2Sn2S3,0.8386000000000005
V3P6WO24,0.8389999999999999
Nb4Te17I4,0.839
LiSn2N3,0.8393999999999995
LiVFeO4,0.8393999999999999
Na5HfAs3,0.8393999999999999
Rb2Cd2(SO4)3,0.8395
Mn5CrO12,0.8396999999999999
NaBi2AuO5,0.8399000000000001
PrMnGeO5,0.8399000000000001
Li5Mn2V5O12,0.8405000000000005
MnZnGeO4,0.8407999999999998
YMg30CuO32,0.8411999999999997
MgCoMo2O7,0.8413999999999997
Pr2Ti2S2O5,0.8414999999999995
Na6Ca8Ta4Si3(S5O24)3,0.8419000000000001
MgCu3(GeO3)4,0.8422000000000001
LiFe2F7,0.8425
Sm2ZrSe5,0.8425000000000002
NbI2O,0.8425999999999996
SrNi3(P2O7)2,0.8425999999999996
SnH5CBr3N2,0.8425999999999998
NaFe2(MoO4)3,0.8429
Na2ZnSiGe(SO6)2,0.8429000000000002
Li3MnSiCO7,0.8431000000000002
Na9TaZn11(SO4)18,0.8432000000000002
Mg3(SO5)2,0.8433999999999999
Mg2Cr3GaS8,0.8434000000000004
LiFe2Rh3O8,0.8435000000000001
NaGa6AgTe10,0.8436999999999997
Na2PdO3,0.8441000000000001
Nb3Sb2Te5,0.8445999999999998
ZnFeF6,0.8452000000000002
Nd(SiP3)2,0.8460999999999999
RbTlO2,0.8461999999999996
Re3(TeI)7,0.8462999999999998
ZnSn2O5,0.8464
Na3AlAs2,0.8472
NaNbZn3(SO4)6,0.8480000000000001
TcP4,0.8481000000000005
NbTe4Cl4O,0.8490000000000002
MnSb2H8(SN)4,0.8498000000000001
TaReO6,0.8500000000000001
Na2Co3O4,0.8500000000000001
Na3Mn2SbO6,0.8500000000000005
Sr(Ag3O2)2,0.8503000000000003
Rb4I2O,0.8507
NaFe9Si6B3H2O31,0.8508
Li3VFe3O8,0.8508999999999998
Li5(FeO2)4,0.8509999999999995
Rb2PdSe16,0.8510000000000002
Rb3Au3Cl8,0.8511000000000001
Rb4MgV4O10,0.8513999999999999
NaVN2,0.8515999999999999
RbErS2O9,0.8516999999999999
Na5BiO5,0.8517999999999999
Tb2Cl3,0.8523000000000005
MgFe2(CoO3)4,0.8533999999999999
Na2CuBiBr6,0.8534000000000002
MgSn8(P2O9)2,0.8541999999999996
Rb2CuMoCl6,0.8542000000000001
Rb2TlInI6,0.8542000000000001
SrBiS2F,0.8544
Mg3MnO4,0.8548
Zn3CdSe4,0.8553
Y2SiGe2S5O24,0.8554999999999999
PrI3O10,0.8556999999999999
LiVCrP2(O4F)2,0.8559000000000001
Li4V3Cr3(FeO8)2,0.8561000000000001
Mn11Si19,0.8562999999999992
Mn3P3PbO12,0.8563000000000005
Li5V2Fe5O12,0.8563999999999998
Na14Mg4Si7Ge4S5O48,0.8565
MgFe4(TeO6)2,0.8568000000000002
Sr9Cr5O18,0.8572000000000002
SbTeOs,0.8576000000000015
Te4MoBr,0.8579000000000003
MgV3FeO8,0.8585000000000003
MgMn2(GeO3)4,0.8586
Rb2Ba6Sb5HO,0.8593000000000002
TaMnNO2,0.8600000000000003
Tl4S3,0.8601000000000001
Li8Mn12Ni4O31,0.8603000000000001
TiFeSe,0.8605999999999998
Li3V3O3F5,0.8607
Sr11InSb9,0.8611
MgCu2(SiO3)4,0.8613
Rb3NiF7,0.8613000000000001
Sr3MgFe2S2O5,0.8619999999999997
VZnO3,0.8621000000000003
NdZnAsO,0.8621999999999996
YMgCrS4,0.8623999999999996
NiP4O11,0.8633000000000002
LiFe5O5F,0.8635999999999999
NaLaS2,0.8638000000000003
Mg2Al3MoS8,0.8658000000000001
MgCo4(SbO6)2,0.8664000000000001
W5I16,0.8664999999999998
RbEr2Cu3Se5,0.8666
Na3V24O58,0.8667999999999998
Na2Nb4Zn4Si3(S3O16)3,0.8668999999999999
Li4Ni3Sn5O16,0.8671000000000006
ScCoTe,0.8677999999999999
Rb2Pd3Se4,0.8678999999999999
Li4Ti3V5O16,0.8680000000000003
Zn2Hg2OF6,0.8682
Na2PtSe2,0.8690000000000002
Tb2Mn2O7,0.8691
Mn3Zn2O8,0.8693
ZrCuH8(O2F3)2,0.8694999999999999
NaSr12Ni7O23,0.8698000000000001
LiV(SO4)3,0.8699
OsCl4O,0.8704
Li5Mn3Co2(PO4)6,0.8706999999999998
ScCuS2,0.8709000000000007
Ti7Cr12O48,0.8711000000000001
NaZr2CuF11,0.8712
LiCo(SiO3)2,0.8715000000000002
SbRhS,0.8717999999999995
Na4Ga2Si3Ge2(SO8)3,0.8719999999999999
SrMn2Si2(H2O5)2,0.8719999999999999
Y6Fe(SiS7)2,0.8721000000000005
Sr14GaAs11,0.8724000000000003
LiBeSb,0.8731
LiMg6FeO8,0.8732999999999995
LiV2P2HO9,0.8733999999999997
SbH7(Br2O)3,0.8734
ZrMo2Se8(Cl7O)2,0.8739
LiZn6Fe17O32,0.8739000000000003
Zn(SnO2)2,0.8740999999999994
NaCa3Ta(SO4)6,0.8743000000000001
LiCoB2O5,0.8749
TbRhO3,0.8749000000000002
MgWCl4O,0.8752
MgTiP3WO12,0.8754999999999997
Li6Mo2O7,0.8755999999999999
Tm2CuTe2(SO7)2,0.8755999999999999
NdI3O10,0.8757000000000001
Na6GaP3,0.8758999999999997
TaZn2WO6,0.8769999999999998
Sb2P2O9,0.8770000000000002
Nb6InCl15,0.8771
Lu2Pb2O7,0.8772000000000002
Sm2CuTe2(SO7)2,0.8773
Mg30CoCO32,0.8777999999999997
NaAgTe5O14,0.8778999999999999
LiV2PO7,0.8785999999999998
Y2CuTe2(SO7)2,0.879
NaMg3Ta(SO4)6,0.879
SrCrSnSbO6,0.8796999999999997
LiMo3P3O13,0.8797000000000001
Li9Co3P8O29,0.8798000000000001
Ta4Se9I8,0.8800000000000001
LiV2S2(O4F3)2,0.8804
LiTa2CuO6,0.8805999999999994
Ti3Mn2Cr3O16,0.8807999999999998
ZnBiO3,0.8807999999999998
Rb2ZrSi3O10,0.8808
SrCa3V4O12,0.8810000000000002
Mg2V3O8,0.8810000000000002