formula,band_gap
Mg3Fe2(SiO4)3,2.4400999999999997
Na2Sc4SiS5O24,2.4401
Na2Zr4Zn4SiS11O48,2.4402
NdTlP2S7,2.4404000000000003
YNbP2SO12,2.4408
Rb7VSiO8,2.4409
LiAlTe2,2.4411
Li4MnOF4,2.4416
Na17Al5O16,2.4421
ZrTiSi(SO6)2,2.4421
Ba2SnO4,2.4422
H4PbI3N,2.4422
MnCu(Te2O5)2,2.4423000000000004
NaTi2Nb2SiP5O24,2.4433
MoSeCl7O,2.4435
LiVWO6,2.4436
Na2YTa3Si4(SO12)2,2.4438
RbTaN2,2.4442000000000004
YGa(SO4)3,2.4444
MgMoF6,2.4449
Na4Sn4H10O11,2.4450000000000003
SrFeBP2(HO5)2,2.4456
Na8Ca2Y2Si3(SO8)3,2.4456
Y4Ti2Nb2O15,2.4457
NaNdCoWO6,2.4461
Na4Sc3Nb(PO4)6,2.4461000000000004
NaVCdO4,2.4462
Li3VFeP2(O4F)2,2.446400000000001
LiFe3O3F4,2.4469
Na2NbAlSi2SO12,2.4475
Na3V5H18O23,2.4479
Na5Nb3AlSi5PO24,2.4481
Na3MgTaSi(PO6)2,2.4483
Na3V5(H12O13)2,2.4485
Sr3CaS4,2.4485
PrTlP2S7,2.4485
Ti3Tl3(PO4)5,2.4485
TiNbTlO5,2.4489
PrFeGe2O7,2.449
Na6La3NbSi2(PO6)4,2.449
Na7NbIn3Si3(PO8)3,2.449
SrVZnP2O9,2.4493
RbInS2,2.4494
NaInI4,2.4494
Sn4SF6,2.4495000000000005
Na2Si2SnGeSO12,2.4498
K3La(PS4)2,2.4498
Tm2TeO6,2.45
Li7MnP4O14F,2.4507000000000003
Li2Cu2(Si2O5)3,2.4508
Na2Y3TaSi2(SO6)4,2.451
NaTiSn(PO4)3,2.4515
Na2GeS3,2.4515
Sr3W2O9,2.4515
TiNi4GeO8,2.4516
MgSb2P2(HO5)2,2.4518
Na2Sc2Ta6Si7S5O48,2.4518
RbPbI3,2.4518
Li6AlFeO6,2.452
Mg2Ti3O8,2.4521
Y6Al2SiS14,2.4521999999999995
SrMgV(PO4)2,2.4522999999999997
NaCoH2C3O7,2.4523
Na10Zn4In4Si3(S3O16)3,2.4524
SrNdZrCrO6,2.4527
MnH16C4(Br2N)2,2.4529
Na14Nb5In3(SiO4)12,2.4529000000000005
TiSi7H42C14(ClO)2,2.4531
TiPb2Se2ClO7F,2.4534
Na14Ta2Al6Si9(SO16)3,2.4538
MnB4O7,2.4538
Zn3As2(HO)16,2.4539
Na2Hf2Ti2Si3(SO8)3,2.4542
MoCl3O,2.4544
Li3V5(H8O11)2,2.4545
MoCl2,2.4548
Na2VF5,2.4549000000000003
TiTlPO5,2.4553
Sc3Si6N11,2.4555
F2,2.4556
Li6Mn(FeO3)2,2.4557
Li6SN4,2.4557
TiH30C10S5(ClO3)2,2.4561
Na3InSiSn(PO6)2,2.4569
Na2TiTeO6,2.4574000000000007
KGd(CO3)2,2.4575
NbTl3S4,2.458
Na8NbIn3Si4(PO12)2,2.458600000000001
Na4NbGa3(PO4)6,2.4587
NbBO4,2.4588999999999994
Na3AlH6,2.4589
MgCo(WO4)2,2.4589
Na3TaZn5(SO4)9,2.459
Na2Te4MoO12,2.4592000000000005
Ti2Si(SO6)2,2.4594
Li3NiO2F,2.4594
GdMoClO4,2.4595
RbCrO2,2.4595
BaMnPClO4F,2.4601
MgGa4(WO6)2,2.4601000000000006
NaAs4IO6,2.4607
Li2MnCo(PO4)2,2.4609
Na2AlAgCl6,2.4610000000000003
Y4Si2S3O7,2.4610000000000003
Na14Zn4In4Si5S7O48,2.4611
Tl2Sn(GeO3)3,2.4616
Rb3Ti3(PO4)5,2.4621
LiV5H18N2O19,2.4621
Li5CrFe4(P2O7)5,2.4627
NaUP3O11,2.4628
Na7La3NbSi3(PO8)3,2.463
Pb3SeO5,2.4633000000000003
Ta3Ga(PO4)6,2.4635
Na6Hf4Ga4Si5S7O48,2.4636
ZrTiO4,2.464
Na5Sc2SiGe2P5O24,2.4641
Mg3Fe2(GeO4)3,2.4642
Na24Ta2Zn10Si9(SO8)9,2.4642
NaLaHfZrO6,2.4644000000000004
Ta2Hg3S(O2F5)2,2.4645
Ba3HfTa4O15,2.4647
Na6NbAl3Si2(PO6)4,2.4649
Ti4Mn(PO4)6,2.4649
MgTi2(PO5)2,2.4653
SXeO3F2,2.4655
TaZn2CrO6,2.4657
Tl2PO3,2.4658
C13Cl12,2.466
Na5YNb3Si5PO24,2.4666
TmGaO3,2.4668
P5(WO6)4,2.4669000000000003
Cs2LiNF6,2.467
Na4Zr2Ge5HO16,2.4674
Ca3Cr2(Si2O7)2,2.4674
Na3Ti2In2P5SO24,2.468
CuH6C2SeI,2.4681
WBr2,2.4687
Cs2RbTlCl6,2.4689
NaLaYSbO6,2.4689999999999994
LiMoP2WO11,2.469
RbGaS2,2.4690000000000003
Li5Ti7In(PO4)12,2.4695
RbLa2TaTi2O10,2.4697000000000005
NaGdCl4,2.47
Na2LiV5H18O23,2.47
SbRu2C6Cl7O6,2.4703
Ag2Sn(S2O7)3,2.4704
NaInAs2O7,2.4705
NaPrTiO4,2.4708
Zn3Fe2(SeO3)6,2.4708
Na6Y4Ta4Si7S5O48,2.4708
Na2CaInP(SO6)2,2.4709000000000003
Na4MgGe3(PO4)6,2.4709000000000003
ZnCrP2O7,2.471
NaLaInSbO6,2.471
RbBaTaS4,2.4711
V2Cd3O8,2.4714
V3Zn7H3SO19,2.4718
Li5InO4,2.4721
Na3Ti4SiP5O24,2.4722
Li5Cr3NiO8,2.4726000000000004
Sr3La4O9,2.4729000000000005
Mg3Co2(GeO4)3,2.4734000000000003
SrCaGdNbO6,2.4736
SrCdAs2O7,2.4738
Na8La3NbSi4(PO12)2,2.4741
Na5H7(Se2O9)2,2.4744
Na2ScTa3Si4(SO12)2,2.4749
Rb2V2Cu(PO6)2,2.4751000000000003
Na4NbIn(SiO4)3,2.4753000000000003
Na6Ta4Si9Sn4(SO16)3,2.4754
Y6TeO12,2.4758
MnAl2Sb2(PO4)6,2.4758
Mo2PbSe2O11,2.476
Na14Y3Nb5(SiO4)12,2.4763
Ta9VO25,2.4763
LaAlH6,2.4765
Ti2H2CSe4Cl16O5,2.4765
Sm6Si4S17,2.4769999999999994
Na3Mo4P5O24,2.4775
P2Pb(XeF6)3,2.4778
Na2SrAl4(B2O7)2,2.4779
OsC4ClO4,2.4779
Na4Ti2Nb2Si5SO24,2.4781
Na6Ca4Zr4Si3(S3O16)3,2.4783
Sr2SnS4,2.4784000000000006
Na4Zr3ZnSi3(SO8)3,2.4786
Li3PS4,2.4787
NaTiGe(PO4)3,2.4788
RbSO4F,2.4788
SrCoAs2O7,2.4789
NaCd4(PO4)3,2.479
Na12Mg4Ta2Si6(SO12)3,2.479
Na4ScNb3Si4(PO12)2,2.4791
MnP4O11,2.4792
LiCrCO4,2.4796
LiCr(GeO3)2,2.4797
Na21Ca10Nb2P15(SO24)3,2.48
ZnWO4,2.4802
Na3MgTa5Si6(SO12)3,2.4803
Na14Ga4Si9Sn4(SO16)3,2.4807
Mg6ZnNiO8,2.4809
Na4Ga2S5,2.4813
Sm2(CN2)3,2.4814
Tl2SnCl6,2.4814
ScTaSi(SO6)2,2.4815
Na2La3Ta5(PO4)12,2.4817
Rb7GdFe6(P4O17)2,2.4818
Mg2Nb2FeO8,2.4827000000000004
Sn2H10C4N2O9F2,2.4831
Li3V2P5O16,2.4835000000000003
HI3O8,2.4841
NaMoPO6,2.4843
PH9C3Br3N,2.4849
LiSn2(PO4)3,2.4853999999999994
TbCrO3,2.4854000000000003
Na6Ti2Si5Sn2SO24,2.4870000000000005
NaGaGeP2SO12,2.4872
Rb2CdSiO4,2.4877
Na3Nb2Al2SiP5O24,2.4877
LiV2P3O10,2.4879
Tm2(CN2)3,2.4883
Na14Mg4In4Si5S7O48,2.4887
SmMg2H7,2.4889
P4S5,2.4891
Tl3BiI6,2.4892000000000003
NaZr2Ge2P5SO24,2.4892000000000003
Na15Nb2Zn10P9(SO8)9,2.4893
Cu2H10C6S3N4,2.4895
Na8MgSi4Sn3(PO12)2,2.4896
RbCdH2I3O,2.49
Na5Ca2Ta2SiP5O24,2.4901
Na2Zr3ZnSi2(SO6)4,2.4907
LuPaO4,2.4908
CdH4(C2O3)2,2.4908
Mg2B24C,2.4909
Sm2S2O,2.4909
Li3Nb3P8O29,2.4912
NaNb4Tl3P2O17,2.4915000000000003
Na24Ca10Ta2Si9(SO8)9,2.4919
Na2LaTaSi(PO6)2,2.4922000000000004
Na21Ta8Zn4Si15(PO24)3,2.4922000000000004
Ta9Pb12O20F29,2.4923
P4N3Cl11,2.4926
Na6Ta4Zn2Si6(SO12)3,2.4926000000000004
ZnHgC4(SN)4,2.4929
Na3Ca5Ta(SO4)9,2.4929
Ba5Tm2ZrAl2O13,2.4931
Zn3WN4,2.4933
NaZrGe(PO4)3,2.4933
Na3CoPCO7,2.4933999999999994
ScPaO4,2.493500000000001
Sn(SO2)2,2.4937
RbIO4,2.494
Rb2GdCl5,2.4944
Sn(PO3)4,2.4952
Na14Nb5Al3(SiO4)12,2.4958
Nd4Mg2Ti3(Si2O11)2,2.496
K2MnH8(SO6)2,2.4963
ThNCl,2.4963
ZnH12C6(S2N)2,2.4966
SrS,2.497
BaVOF4,2.4971
PS,2.4974
NaScTiO4,2.4975
LiTiAlO4,2.4977
LiSb3(PO5)2,2.4977
Na6ZnSn7(PO4)12,2.4988
Zn8B3H3O14,2.4989
LiFe(MoO4)2,2.4998
Na3CrPCO7,2.4999
CsCu3As8H24C8(IO2)4,2.5001
Zr5Ti7O24,2.5005000000000006
Na3Ti2SiSn2P5O24,2.5009
MgV5H20NO22,2.5010000000000003
KLaHf2O6,2.5015
RbNa10Al11Si13O48,2.5018
Li7Ti12NbO30,2.5023000000000004
V2Pb2Se2O11,2.5026
Y2Ti2O7,2.5034
Na14Zn5Sn3(PO4)12,2.5043999999999995
Na5ScNb3Si5PO24,2.5048
Na6Zr4Ga4Si5S7O48,2.5048000000000004
Nb4Zn2P6(SO12)3,2.5056
Na7Al10Si14(AgO16)3,2.5056000000000003
Na15Ca10Nb2P9(SO8)9,2.5057
Na5Zr2Ti2Si3(PO8)3,2.5058
Na2Y4Zr4Si3(S3O16)3,2.5059
KFeBP2HO9,2.5059
NiTe2O5,2.506
NaLi3Ti2Al2(PO4)6,2.5061
CsBrF,2.5062
Sm2Zr2O7,2.5065
TiSCl6O,2.5066
Na3Hf2Ti2SiP5O24,2.5068
Os3C9S2O9,2.5069
Rb2Mo3SeO12,2.5069000000000004
VCdBiO5,2.507
Mg3ZnO4,2.5074000000000005
Zr4CdO9,2.5075
NbCl4F,2.5076
Li5SbS3I2,2.5079
Lu2Ti2O7,2.5080000000000005
ErTa5Ag2O15,2.5085
K2YAgI6,2.5089
LaV2IO9,2.51
Mg2V2O7,2.5102
LiTiPCO7,2.5105
Li4Sn(BO3)2,2.5108
KNdZr2O6,2.511
Na14Nb5Ga3(SiO4)12,2.511
Ti2CdO5,2.5113
Mg5(SiN3)2,2.5114
SnICl,2.5118
Na2InSn(PO4)3,2.5122
LiTiSn(PO4)3,2.5122
V2H10Se2O13,2.5124
Na6MgGe7(PO4)12,2.5127999999999995
RbGa(SeO4)2,2.5128
Mg5V2(MoO8)2,2.5128000000000004
NbHO3,2.5133
SmCuO2,2.5136
Zn2PN3,2.5136000000000003
Na2Ge2S5,2.5142
Na6MgSn7(PO4)12,2.5148
Sr3TeO6,2.5149000000000004
Na3SbH30S3N10,2.5157
Ta3Te4ClO15,2.5158000000000005
MgAlFeO4,2.5160000000000005
RbNbV2O8,2.5161
K2SbPO6,2.5161
Rb3InBr6,2.5162
Li8CeO6,2.5162
Nd6Si4S17,2.5163
UP2H10CO11,2.5169
VH9(NF)3,2.5181
Ho2TeO6,2.5188
Na2MgVF7,2.5192
Na14Sc4Nb4Si11SO48,2.5192
ZrTiP2SO12,2.5193
MnNb4FeO12,2.5194000000000005
Na3H7Ru,2.5195
NaSm(PS3)2,2.5197
ZnBi2B2O7,2.5198
Ca4Al3CrSiBO14,2.5198
Li4Ti5O12,2.5198
LiCrCO3F2,2.5199000000000003
LiGaI4,2.5201
Na10Ti4Nb4Si11SO48,2.5206
Ti2Bi2O7,2.5208
VBiPbO5,2.5209
Na5In2SiSn2P5O24,2.5211
Tl2Mo4O13,2.5213
UP3HO11,2.522
Na5Nb3GaSi5PO24,2.5221
Na3In2Ge2P5SO24,2.5221
Na4NbGa3Si3(SO8)3,2.5221
LiGa5O8,2.5222999999999995
MnCoB2O5,2.5224
LaSmCr2O6,2.5226
Te6Br2O11,2.5231000000000003
NaZr3TaSi3(SO8)3,2.5233000000000003
Na8La3NbSi5SO24,2.524
Na5Sc3Si3Sn(SO8)3,2.524
MgMn2(BO3)2,2.5246000000000004
SrCaMg6O8,2.5247
LiVTeO5,2.5249
Na2TiAl(PO4)3,2.5249
Na6Nb3Al(SiO4)6,2.5249
Na2SnH14S3O7,2.5250000000000004
V5NiH20NO22,2.5253
RbLiZnS2,2.5255
TlCNO,2.5255
TcO2F3,2.5259
TmInO3,2.5259
FePH5CO8,2.527
Rb3IrF6,2.5271
PrV2IO9,2.5277
SrCd2H16(Br3O4)2,2.528
Na15Mg2Nb10Si15(PO24)3,2.5281
Rb4SiO4,2.5281
Na7Ta3Zn(SiO4)6,2.5286
Na2Zr6Zn2Si3(S3O16)3,2.5289
SmAgO2,2.5292
Na2TiSiSn(PO6)2,2.5292000000000003
TbTa5Ag2O15,2.5293
NaNbSiSn(PO6)2,2.5295
Na7NbSi6(GeO8)3,2.5297
Na14In8Si7S5O48,2.5298
Na3TiAlSi2SO12,2.53
Tb2AlFeO6,2.53
LiMnPH2O5,2.5301
Ca3Ti2O7,2.5302
Na3TaZnSi(PO6)2,2.5302
P2H10S4N2O,2.5304
TiSiGe(SO6)2,2.5308
Na9Mg4Ta2(PO4)9,2.5308
W2OF8,2.5313
SbS(BrF2)3,2.532
InPbCl3,2.5322
Na5Ga3Si3Sn(SO8)3,2.5322000000000005
RbV2SbO8,2.5323
TaTl3S4,2.5325
ZnH4(ClO3)2,2.5325
Sr2BIN2,2.5325999999999995
Na5Ti2Si3Ge2(PO8)3,2.5327
Na6Al4In4Si3(S3O16)3,2.5328000000000004
NaHgCl3,2.5331
Na10NbGa7(PO4)12,2.5331
LiV(IO4)2,2.5336
SbC6S2F19,2.5341
Na10NbAl7(PO4)12,2.5341000000000005
Cs2TbCuCl6,2.5342
Na5Mg2Ta2SiP5O24,2.5343000000000004
SiHg2(OF3)2,2.5345000000000004
TeBrO3F5,2.5347
NaMgTi3O7F,2.5349
LiY3WO8,2.5363
Na3TiGaSi2SO12,2.5365
Na6TiMn(SiO3)6,2.5366000000000004
Na2La4SiS5O24,2.5372000000000003
Pr6Si4S17,2.5372000000000003
MoP4H38C13(NCl)4,2.5373
Tb2Zr2O7,2.5376
RbInI4,2.5376000000000003
Na7TaTi3(SiO4)6,2.5377
Na5TaO5,2.538
Na3ZnGaSi(SO6)2,2.5381
NaTi3AlO8,2.5385
Mo3P5Pb3O23,2.5385000000000004
Na4InSi2SnPO12,2.5387000000000004
LiBiF6,2.5394
Ta2Zn2SnO8,2.5394000000000005
Na5In3Sn(PO4)6,2.5395
Mg3Co2(SiO4)3,2.5398
Li5Si2BiO8,2.54
Na14Sc3Nb5(SiO4)12,2.5405
ZnCoTeBr2O3,2.5411
Na6Ca2Hf2Si3(SO8)3,2.5415
Na8Mg2Sc2Si3(SO8)3,2.5423
Na6NbGa3Si2(PO6)4,2.5424
Na2SrVP2O9,2.5425999999999997
NaPb2IO6,2.5426
VPbOF5,2.5426
NaFe2P2H5O11,2.5432
NaLaMgTeO6,2.543200000000001
Rb2PrAgI6,2.5438
Sr5(Sb11O19)2,2.5443
NaYSnWO6,2.5447
LiLa4AlO8,2.545000000000001
MgTi4O9,2.5451
Rb2SnCl6,2.5452
Mg2NiWO6,2.5452000000000004
Na5Ta2Zn2SiP5O24,2.5461
Rb3BS3,2.5462
SrCo2As2(H2O5)2,2.5462
SrMg14NiO16,2.5463999999999998
LiH2NO3,2.5465
Na4Hf2In2Si3(SO8)3,2.5473
ZnCo(SiO3)2,2.5473
MgZnS2,2.5474
Na3CaTa5Si6(SO12)3,2.5475
Na2HfTiSi(PO6)2,2.5478
Sr2Mg(WO4)2,2.5479000000000003
Cs3TlCl6,2.5485
LiCr2P3O10,2.5486
VP2(HO)6,2.549
Y2MgBi2O7,2.5491
Na4MgZr3Si3(SO8)3,2.5494
Li3Mo3(PO4)4,2.5497
Pr2ScNbO7,2.5497
Gd3W(ClO2)3,2.5504
Sr2GdNbO6,2.5504
Li4Sb2C4SO16,2.5506
P4WO12,2.5506
RbInAs2O7,2.5506
RbNa3H4,2.5511
Mg17(As3O16)2,2.5512
YFe3Se2ClO8,2.5517
Na7Nb2Al2Si5PO24,2.5519
Rb2NdAgI6,2.5524
Ba5Lu2ZrAl2O13,2.5529
CsBa2SnS4Cl,2.5537
Rb2InBiF6,2.5538
P2S5,2.554
Li4MnSn3(PO4)4,2.5541
Na2HfTiSi2SO12,2.5544
Na2Nb4O11,2.5546
K2TeH10(NO7)2,2.555
Sr2YI7,2.5552
Li6Ni9(PO4)8,2.5554
Rb2Cr2O7,2.5555000000000003
Na3MgSn(PO4)3,2.5556
Sn5P6O25,2.5557
Na6Hf2Ti2Si5SO24,2.5558
SmAgH4C2SO10,2.5559
Rb2AgBiF6,2.5561
MnH4(OF2)2,2.5561000000000003
LiSbPHO5,2.5562
Sr5Nb4O15,2.5565
Nd3SiS6Cl,2.5568000000000004
Li3NbHO2F7,2.5571
Gd6WO12,2.5571
Li7Fe2P7O24,2.5575
Tl2CoH12(SeO7)2,2.5576
NaTa2Ti2SiP5O24,2.5576
Sm2Ge2O7,2.5577
Na6LaNb3(SiO4)6,2.5579
SrCaV(PO4)2,2.5581
Na6MnCl8,2.5584
Na2CaVP2O9,2.5586
Ca3Sn3(AsO4)4,2.5586
MnH4S2O9,2.5591000000000004
Na5Ti4Si3(PO8)3,2.5592
Te2Pb3(ClO3)2,2.5594
Na4Nb3GaSi4(PO12)2,2.5598
LiVPH4O7,2.56
TlGeSbO5,2.5603
LiSn2P3O10,2.5603
Rb2NaSbBr6,2.5605
Na6ZnGe7(PO4)12,2.5606
SrLaBr5,2.5607
Li4B4Sb2SO16,2.561
NaDySnWO6,2.5611
Li7Mn(OF)3,2.5612
NaFeH22C10(NO6)2,2.5615
Li2CoCO4,2.5619
Na5Ga2SiGe2P5O24,2.5626
Sr2LiTaN3F,2.5637
Na18Mg4Ta8Si15(SO24)3,2.5638
SrCrO4,2.5639
NaSn2Ge2P5SO24,2.564
MgCdH4(N2O5)2,2.5641
Na14Ti8Si11SO48,2.5642
RbAl(H2N)4,2.5643
SrO,2.5643
Sr3GeO5,2.5648000000000004
Na5Al3Si3Sn(SO8)3,2.5649
Sr2H8PtO8,2.5652
Na5Nb2Si5Ge2PO24,2.5656
Sr3ZnPtO6,2.5661
NdCrGeO5,2.5664
Nd2Mo4O15,2.5665
Na10NbIn7(PO4)12,2.5665000000000004
Sr(BiO2)2,2.5672
Sr2BN2F,2.5675
MgMn2(PO4)2,2.5676
Li3Sb(PO4)2,2.5676000000000005
Tl2Pt(CN)4,2.5679
Na2Si2Sn2SO12,2.5679
NaBS2,2.5684
ZrHg3(SCl3)2,2.5687
K2AgI3,2.5687
Pb2ClOF,2.5689999999999995
TaMnNbO6,2.569
Na15Nb10Zn2Si15(PO24)3,2.5691
Na3FeS2(O4F)2,2.5691
Na2La3TaSi2(SO6)4,2.5694
Rb2SmCuCl6,2.5695
Na6Sc3NbSi2(PO6)4,2.5697
LuTa5Ag2O15,2.5698
PAuCl4,2.57
Rb2NaAsBr6,2.5701
RbGeCl3,2.5704
Mg7TiAl6Si8(H4O19)2,2.5706
MnSn(BO3)2,2.5711
NaNO3,2.5717
K2GdCl5,2.5725
Li3B2SbO6,2.5731
Na4Ta2Ti2Si5SO24,2.5732
Na4TiP2O9,2.5735
NiTeO3,2.5735
Sm3Si2S8I,2.5736
Na12Ta2Zn4Si6(SO12)3,2.5737
Nd2ScNbO7,2.5738
Na2CaTi2(GeO4)3,2.5739
Tl2TeCl6,2.5741000000000005
Na4MgSn3(PO4)6,2.5745
PbBr2,2.5746
ScNb(PbO3)2,2.5748999999999995
NaLiTiAl(PO4)3,2.5748999999999995
P6(Pb2O5)5,2.5755000000000003
SnP2(HO4)2,2.5756
TiSnP2SO12,2.5757
NaNbGa(PO4)3,2.5757
ZrHg3(SeCl3)2,2.5759
Na2Ta5In3(PO4)12,2.5759
Zr3Ti2(PbO3)5,2.5763000000000003
NaZr2Nb2SiP5O24,2.5764
MnH12S2(NO5)2,2.5769
CsNa2Mn3P4ClO14,2.5773
Na3Zr2Ti2SiP5O24,2.5773
Li5NiHO4,2.5773
TiSn6F16,2.5774
Y3Si5N9O,2.577500000000001
ScNbP2SO12,2.5778
Na4Y2Zr2Si3(SO8)3,2.5778
Sr2SnO4,2.578
Sr4Hf3TiO12,2.5782
NaTiNbSi(PO6)2,2.5784
Na2TiSi2SnSO12,2.5789
Na6Ti4Si5SO24,2.5801000000000003
NaHfNbSi(PO6)2,2.5804
LiNiOF2,2.5804
Na6Ca2Ta4Si6(SO12)3,2.5807
Li2Si4Ni5O14,2.5811
Nd4Si2S3O7,2.5813
Sr4Li2Ta2Al2N8O,2.5814
Na4TiGaSi2PO12,2.5818
Sr3Gd2(BO3)4,2.5819
Na10Ti8Si9(SO16)3,2.5819
Li6TeO6,2.5821
ScTa(PbO3)2,2.5824
NaZrNbSi2SO12,2.5824000000000003
Na3BS3,2.5824000000000003
Na4Hf2Nb2Si5SO24,2.5825
ZnCo(Si2O5)2,2.5827000000000004
Mg2TiO4,2.5837000000000003
Sm4Si2S3O7,2.5838
Na2CrO4,2.5838
Tb2SiSeO4,2.5839
Tl3AsO4,2.5842
Na5Al3H14,2.5843000000000003
K2LaTa5O15,2.5845
MnH14C8(NO3)2,2.5846
Na10TaIn7Si6(SO8)6,2.5849
Ta2Mo2O11,2.585
B2TeO6,2.5855
Na7MgIn3Si3(SO8)3,2.586
Rb2TlGaCl6,2.5867
Sm3NbO7,2.5867
Nd3SbO7,2.5869000000000004
TiP2PbO8,2.5872
CsMo3Cl7,2.5874
BaV2Ni3(HO5)2,2.5876
LiFeAs2O7,2.5882
NaMn6Al3H42(SO19)2,2.5885
Na2B2S5,2.5898
ZrV2O7,2.5909
Sm2MgMo2(I4O15)2,2.591
TiBi6(PO8)2,2.5912
Rb5SiHO5,2.5914
LiMo2AsO9,2.5915
Na5Ti2Si3Sn2(PO8)3,2.5917
NaMnP2H10NO10,2.5922
TaTiTlO5,2.5923000000000003
Na11TiNb2Si4P2O25F,2.5924000000000005
Rb2TiCr2(MoO4)6,2.5925
VH10(CO5)2,2.5926
NaLiTi3O7,2.5933
HgBrCl,2.5935
TbInO3,2.5935
Li14Mn2O9,2.5939
Li7V2P7O24,2.5942
Te2MoO7,2.5946
Tl5V3O10,2.595
NiH4(IO4)2,2.5950999999999995
Rb4CdCl6,2.5953
Na2UF8,2.5956
Na21Ta4Zn8Si3(P5O24)3,2.5966
NdTiNbBi2O9,2.5968
Na3Sc2Ge2P5SO24,2.5971
KPH12PtC2N2(ClO2)2,2.5977
Mg2Nb3Bi3O14,2.5981000000000005
TiNb6Tl2O18,2.5982
MgCoSiO4,2.5985
Na3Ir(NO2)6,2.5985
Na6Y3NbSi2(PO6)4,2.5986
Ca8Al9Fe3Si12(HO13)4,2.5988
CaMnSiO4,2.5994
Cs3Bi2Br9,2.5996
Na10Si9Sn8(SO16)3,2.5997000000000003
Ni5Sn(BO5)2,2.5999
Na2LaInSi(SO6)2,2.6
P3N5,2.6005
Na14Ca4Zn4Si3(S3O16)3,2.6007
Nd2SiSeO4,2.6009
BaAs2Xe5F22,2.6011
Na3MoF6,2.6015
TlPbCl3,2.6017
Na6Zn7Sn(SO4)12,2.6018
NaNb2SiSn2P5O24,2.6019
Na2Ca(AsO3)4,2.6021
Na5Hf2Nb2Si5PO24,2.6021
Na12Ca3Fe2(SiO3)12,2.6023
ZnH13RuN5(Cl2O)2,2.6024000000000003
SmCoSe2ClO6,2.6024000000000003
Na9NbZn5P6(SO12)3,2.6027
Na7Ti3Nb(SiO4)6,2.6027000000000005
VCl3O,2.6029
Na8Ca2Ta2Si5SO24,2.6038999999999994
Sr4Zr3TiO12,2.604
Li6Ti8Ni(PO5)8,2.6041
Na7CaGa3Si3(SO8)3,2.6043000000000003
RbVH4(OF2)2,2.6044
LiMn(Si2O5)2,2.6047
Rb2SeCl6,2.6051
Na4ScNb(SiO4)3,2.6053000000000006
BaSr2Tm6O12,2.6055
RbTi2(PO4)3,2.6058000000000003
LaMg2H7,2.6059
Sb2H6CS(ClO)6,2.6062000000000003
Rb2Bi4O7,2.6064000000000003
NaLaNbInO6,2.6066000000000003
Li2Mn(SiO3)2,2.6074
Na3Rh(NO2)6,2.6076
Na6YNb3(SiO4)6,2.6078
VAgTeO5,2.608
Zr7(NO2)4,2.6082
Tl4V2O7,2.6082
ScV(SeO4)2,2.6083000000000003
Na2GdCl5,2.6084
TiPCl7O,2.6085000000000003
Sr2V4Te2H2O17,2.6086
Gd2Si2O7,2.6086
Ni3TeMo2O11,2.6087
Sn2P2SO12,2.6089
Li6W2O9,2.6091
BaHfZrSnO6,2.6097
Dy2Zr2O7,2.609700000000001
Na6Zr2Ti2Si5SO24,2.611
Li4Mn7(PO4)6,2.6112
Li6Ca12W4N16O3,2.6114
Rb5Te3H4NCl18,2.6114
Na10Sc7Nb(PO4)12,2.612
Na3GaS3,2.6125
TiGeP2SO12,2.6127
Na10Hf4Ti4Si9(SO16)3,2.6128
MoH12Pd(NO)4,2.6134
Na14La6Ta2Si9(SO16)3,2.614
LuSF,2.6141
SnPClO2,2.6142000000000003
Si6H31C10N,2.6143
Y2Zr24O51,2.6145
Li3V(CO3)3,2.6147
Li2CoPO4F,2.6148
Na6La2Ga2Si3(SO8)3,2.6149000000000004
Nb3Zn2Bi3O14,2.6158999999999994
LiFeMoClO4,2.6161
Na7Sc2Ti2Si3(PO8)3,2.6163
Na3CoAsCO7,2.6166
Na2Zr2Zn2SiS5O24,2.6169
PbBrF,2.617
BaFeP3H2O11,2.6171
Na12Ca4Ta2Si6(SO12)3,2.6172
NaScSnO4,2.6174
NaCr(SiO3)2,2.6175
Li6MnO4,2.6186
Na2Sc3Ta5(PO4)12,2.6187
Mg3Si4(BiO7)2,2.6188
TaSi2H36C12N4Cl,2.619
SrCa2WN4,2.6190999999999995
Na8In2Si5Ge2SO24,2.6191000000000004
Ti3H2O7,2.6194
MgNiAs2O7,2.6194000000000006
Na4TiAlSi2PO12,2.6197
NaLi3Ti2Cr2(PO4)6,2.6201
Li6VFeP2(CO7)2,2.6203000000000003
RbGd2Cl7,2.6207
CsGd2Cl7,2.6213
Sn(CO2)2,2.6213999999999995
Na2Ga2GeS6,2.6215
SiBi2O5,2.6223
K2Na4Be2O5,2.6225
CaV3(P2O7)2,2.6225
SrLiVF6,2.6226
KRe2O4F7,2.6228
Ta3Zn2Bi3O14,2.6231
Na14Al4In4Si7S5O48,2.6232999999999995
Rb2Mo3SO13,2.6234
Rb2Ti6O13,2.6235
Na4CaTaSi2PO12,2.6236999999999995
Mg30CdCO32,2.6238
Tl3FeF6,2.6238
Li2Fe(SiO3)2,2.624000000000001
Ti2Ni(PO5)2,2.6241
NaLaHfSnO6,2.6241000000000003
SrGe7N10,2.6242
VP2H4O9,2.6242
NaHfNbSi2SO12,2.6247
Tl3PbI5,2.6249
FeBi(SeO3)3,2.6249
Tm2Ti2O7,2.6253
SrP2(XeF6)3,2.6253
Nb2Zn2NiO8,2.6258
TaAsO4,2.6264
Na10Ti4Si9Sn4(SO16)3,2.6265000000000005
BaZr2SnO6,2.6268
K2Co2(SeO3)3,2.6268
Na3GaSiGe(PO6)2,2.6269
Na2Ta3GaSi4(SO12)2,2.6281
Tm2MgW2(ClO4)2,2.6281
LuTa3O9,2.6285
Na4VS3O13,2.6285
Na2Ta3InSi4(SO12)2,2.6287
Na3SbP2O9,2.6288
NaZnAsO4,2.6289
Li2Ti2NiO6,2.6289
Y7(O2F3)3,2.6295
Na2GaGe(PO4)3,2.6296
Na3FeH10C6O17,2.6301
MnTlF3,2.6304
Na2Li4Co2C4SO16,2.6305
ZnH8(CO2)4,2.6306
LiCaVF6,2.6309
MoH2Cl2O3,2.6314
Na3AlSi2SnSO12,2.6314
SrGd2Sc2O7,2.6316
Na9Ca10Ta2P3(S5O24)3,2.6317
ScH6Br3N2,2.632
SrSmHfCrO6,2.6321000000000003
Li2Ti6PbO14,2.6324
Na5Ga3Ge(PO4)6,2.6329
Pb3Se2(IO3)2,2.633
Li6V5(P2O7)4,2.633
NaNbAl(PO4)3,2.6331
NaLaZrSnO6,2.6331
Nd5Te7MoCl3O23,2.6333000000000006
Mg2MnNb2O8,2.6333999999999995
Sr3Ti(GaO2)10,2.6334
Na7Fe4P9O32,2.6353
NbAsO4,2.6353
Rb2ScInCl6,2.6355
Na14Al4Si9Ge4(SO16)3,2.636
Na10Zr2Zn6Si3(S3O16)3,2.6361
Na6Ta4Si9Ge4(SO16)3,2.6364
Na15CaNb11(SiO4)18,2.6367000000000003
CsW3Br7,2.6371
Na5NbO5,2.6375
Mg3TcH7,2.6375
NaNbGe3(PO4)6,2.6377
NdSBr,2.6382
Na5Sc2SiSn2P5O24,2.6385
ZrNO6,2.6386000000000003
RbBiF6,2.6387
Li7Fe(O2F)2,2.6388000000000003
BaPrDyTiO6,2.639
NiH12(BrO7)2,2.6392
AgSb(S8F3)2,2.6392
Na3MgInSi(SO6)2,2.6394
Na6Al3Fe3(TeO6)4,2.6394
SnH4C2NO4F,2.6395
SmInO3,2.6396999999999995
Rb2TeCl6,2.6398
ZnTe2O5,2.6398
K4Ni7(AsO4)6,2.64
Nb3Fe(PO4)6,2.6406
Tl3PO4,2.6409
K2SrTi10O22,2.6409
Mg3(AsO4)2,2.6418000000000004
PaTlO3,2.6427000000000005
Na2VCSO7,2.643
Mn3Si(O2F)2,2.6431
Y3HoFe4(Ge2O7)4,2.6432
TmCrTeO6,2.6432
Ba2H14C12S4N4O15,2.6438
VNiH14(O2F)4,2.6441
SnPO4F,2.6443000000000003
Zn2SiGeN4,2.6445
Na3ZnInSi(SO6)2,2.6446
RbSi2BP(H3C)9,2.6448
TeH14C2(NO2)4,2.6452
LiB13C2,2.6452
Cs2CoSiO4,2.6453
Na2SrMnV2O8,2.6457
SCl4,2.646
Nd3NbO7,2.6460000000000004
Pr6S3(OF4)2,2.6461
PrTl(WO4)2,2.6463
LiMgBN2,2.6464
Sb4Cl2O5,2.6466
NaAs3H2O9,2.6467
Na7Ti2Al2Si3(PO8)3,2.6471
TbWBrO4,2.6473000000000004
Na10La4In4Si5S7O48,2.6476000000000006
Na2Nb2(P2O7)3,2.6478
Ba3MgNb2O9,2.648
NbXeF11,2.648
NiTe(PO4)2,2.648000000000001
Tl10Hg3Cl16,2.6482
Na2TiSi2GeSO12,2.6483
PS2N(Cl3O2)2,2.6486
NaH8Rh(N2O3)4,2.6488
Na3Y2Sn2P5SO24,2.6488
P4S9,2.649
Na4Co(MoO4)3,2.6495
Na4TaZnSi2PO12,2.6495999999999995
LiFe(Si2O5)2,2.6499
Na14Ti4Si11Ge4SO48,2.6503
Tm4Si2S3O7,2.6506
KBaNa2Ti3Fe(Si2O9)2,2.6507
Tb(BiO2)3,2.651
Sm2NbInO7,2.6514
Rb3AlO3,2.6514
Na10Ca4Zr4Si5S7O48,2.6517
SrTi3Al8O19,2.6519000000000004
NaGa(GeO3)2,2.6524
MnH9C4NO6,2.6532
NaAl(PS3)2,2.6538
Mg3Sn3(AsO4)4,2.6538
NbTl(PO4)2,2.6539
Na4LaTa3Si5SO24,2.6539
Nd5Te7WCl3O23,2.654
Na10La7Nb(PO4)12,2.6542
Li2Cr3P9O28,2.6543
Mg3Ta6(FeO6)4,2.6546
Na6Hf2Mg2Si3(SO8)3,2.6546000000000003
TiTl2(GeO3)3,2.6548
Na2Ti7O15,2.655
Na3ScSiSn(PO6)2,2.6552
Li4Mn3Fe(BO3)4,2.6556
Dy5Bi11O24,2.6562
Cs2KBiI6,2.6566
Na3Ti2Nb2Si3(PO8)3,2.6566
Na2Ca5Zr3(SO4)12,2.6567
Ti3NiBi2(PbO6)2,2.6568000000000005
TlInF6,2.6572
SrZnAsHO5,2.6572000000000005
Mg3(AlN2)2,2.6572999999999998
Na7ZnIn3Si3(SO8)3,2.6573
NaZr3Nb(PO4)6,2.6573
Na6Mg6Zr2SiS11O48,2.6574000000000004
Na2NiMo6H26(NO15)2,2.6576
Na8Y2Ti2Si5SO24,2.6579
Na2Ta6Ga2Si7S5O48,2.6581
Rb2PtF6,2.6581
Ta2Fe4O9,2.6582
Na3GaGe3(PO4)6,2.6582
Na5ZrIn3Si3(SO8)3,2.6583999999999994
Li4Y3FeO8,2.6585
LiCoSO4F,2.6591
NaLiGe4O9,2.6592
Na2Zr4Sc4Si3(S3O16)3,2.6592
NaFeP3H7O13,2.6593
Na6Zr4Zn4Si3(S3O16)3,2.6595
Pr3NbO7,2.6597
Li6Mn9(PO4)8,2.6601
NaNbSi2SnSO12,2.6601
K2CoP2WO10,2.661
RbFeP2(HO4)2,2.6613
Li6MnFe5(BO3)6,2.6616
Zr6Nb2O17,2.6619
Ni7Te6(ClO9)2,2.6621
Nb2Pb2Se4O15,2.6621