formula,band_gap
Tl5SbO5,1.4702000000000002
ZrNi5(BO5)2,1.4703
Na18Nb20Zn4Si27(SO16)9,1.4703999999999997
Ho9B5S21,1.4704999999999997
Tm2Pt2O7,1.4709000000000003
Na2CaSnP2SO12,1.4712999999999998
SbTe2SeF6,1.4718999999999998
Sm5AgSe8,1.4720999999999995
Sr2MnTeO6,1.4722
K2NaMoBr6,1.4722999999999995
NaMnO4,1.4723
RhC2IO2,1.4724
YTlO2,1.4729
BiIO,1.473
RbHo2Cu3S5,1.4733
TlInHgS3,1.4733999999999998
Na6Y6Ta2Si5S7O48,1.4735
Rb2AgIrF6,1.4737
RbNaCa2Nb4O13,1.4739
Os(OF2)2,1.4741
MgTeO4,1.4750999999999994
Mg3Si4(MoO7)2,1.4753000000000007
Rb2NaMoBr6,1.4757000000000002
Tb4Te3N2,1.4759000000000002
Na6Sc4Si5Ge4S7O48,1.4765
AlCrFeO4,1.4767
VFe3(PO4)4,1.4768999999999997
Mg(InTe2)2,1.4769
Na6Ga4Si5Ge4S7O48,1.4771999999999998
RbAuBr4,1.4772
V2OF4,1.4777999999999998
RbCa2Nb3O10,1.4777999999999998
Sr2La2Cr3MoO12,1.4779999999999998
TeAsXeO2F11,1.478
Ba6La2Co4O15,1.4781999999999995
K2SnHgSe4,1.4785
CsPbI3,1.4785
LiFe6O7F5,1.4787
SrHgAs2O7,1.4788
Na4CaSiSn(PO6)2,1.4788
Rb2ScCuF6,1.479
Li5V2OF11,1.479
Sm2SiTeO4,1.4791
Na8Ca3Si3Sn(SO8)3,1.4794999999999998
GdPS4,1.4795000000000005
MgCd2(WO4)2,1.4800000000000004
Li4Y3VO8,1.4801000000000002
Te2Mo3Se7Br10,1.4804000000000002
Li4Ti3Nb2Ni3O16,1.4810000000000003
Na30Nb16Zn8Si27(SO16)9,1.4811
Na2Sn4O9,1.4813
Tm2MgS4,1.4815
Na4Y2Ti2Si3(SO8)3,1.4821
LiTeHO4,1.4823
DyTlO2,1.4823999999999995
Ca2Sb2S5,1.4826
Na2Ti4Si3(SO8)3,1.483
Cs2Zr(AgTe2)2,1.4831
Ti2Si7H42C14(Cl3O)2,1.4835
Mo4P5O24,1.4836
Zn7P10,1.4837999999999996
MoPCl8O,1.484
TlHO,1.4845000000000002
Sr2MgFeO4,1.4848
MgMo2(HO2)4,1.4856000000000005
LiScS2,1.4856999999999996
Ta2Sn2O7,1.4862000000000002
TiFeO3,1.4865000000000004
Na5Cu(HO2)2,1.4867
Li2V2P7HO24,1.4868
VPb2N3,1.4869
MnH21C7S3N,1.4871000000000003
Li4Ti4MnCr4O18,1.4871999999999996
Ce6Y26O51,1.4873000000000005
Na10Zn4O9,1.4874
LiMnSi3O8,1.4876999999999998
LaSF,1.488099999999999
Nd5AgSe8,1.4881000000000002
Tb3CuSiSe7,1.4882
Rb2B2Se7,1.4887
Hg5(SeO4)2,1.4889
NaCa3Fe4(SiO3)8,1.4890999999999996
Sm2TeO2,1.4893
Na2AgAsCl6,1.4895
TaVZn2O6,1.4902000000000002
Na6La5Nb3Si6(SO8)6,1.4906
SbTe7SXeCl(OF4)9,1.4909
VBrO,1.4911
Ta2SnO7,1.4912
NaCaAlOF6,1.4912999999999998
Na2Nb4Ga4Si5S7O48,1.4920999999999998
NaLaNb2O7,1.4924000000000002
Na3ZnGe(PO4)3,1.4929
Na30Ca20Nb4Si9(S3O16)9,1.4932000000000003
Na18Ca20Ta4Si3(S11O48)3,1.4934
Li5Cu(PO4)2,1.4936000000000005
NaGa6Sb7(TeCl3)8,1.4941
Na5NiHO4,1.4942999999999995
Na4Mg3SiGeS5O24,1.4946999999999997
Ca2FeSbO6,1.4953
Na4Mg3TiSiS5O24,1.4953
Na2CoNiF7,1.4955
Ca2V3O8,1.4962999999999995
Li9V5(Si5O16)2,1.4964999999999993
NaP15,1.4966000000000004
C(Se2Br)2,1.4971
Ca4Mn3B3CO15,1.4971000000000003
Na2Y4Ga4SiS11O48,1.4977
Li3V(Si2O5)3,1.4977999999999998
RbCaSb,1.4979000000000002
ThV2O6,1.4981999999999998
Na14Zn4Si7Ge4S5O48,1.4982000000000002
Rb2NaMn3F12,1.4986
LiCuC2O5,1.4988
K3Gd3(PS4)4,1.499
V3As2H4O13,1.4995
LuSeO3,1.4996000000000005
Ca2FeH6,1.5002999999999995
Sr3InRhO6,1.5007
Li4Ni3Sn(PO4)4,1.5015999999999998
Li6VSn3(PO4)6,1.5020000000000002
Na2Nb5Al3Si6(SO8)6,1.5021
Li4V2SiO8,1.5021999999999998
LiP4WO12,1.5023
Sr4Nb2O9,1.5023000000000004
LiVSiO5,1.5034
Nd4Ag2Se7,1.5042
NaGeN,1.5042999999999995
Re3(SeCl)7,1.5043
LiLa2MoO6,1.5043000000000006
RbP15,1.5046000000000004
P3RhW2O15,1.5049
TbHSe,1.5054999999999996
WN2(OF4)2,1.5059999999999998
Mn2NbFeO6,1.5060000000000002
Sr2ZrMnO6,1.5060000000000002
TlRe3(Se2Cl)2,1.5062999999999995
Na6Mg6Ti2SiS11O48,1.5064000000000002
Mg7GeN6,1.5064000000000002
SbSI,1.5064000000000002
Ho2Pt2O7,1.5068999999999997
KCr2FeO8,1.5071
YTl(PSe3)2,1.5071
LiTiVO5,1.5071000000000003
YHSe,1.5072
Cs2As8S13,1.5072
Nb2Si3Ge2(SO8)3,1.5074
NaMgTaSi(SO6)2,1.5074
Rb2U2O7,1.5077
Na14Zn5Si6Ge3(SO8)6,1.5084
Ti4Fe(PO4)6,1.5086
Na6Ca6Ti2SiS11O48,1.5087000000000002
NaLaTiSi(SO6)2,1.5088
Na2TiNiO4,1.509
MgFe4NiO8,1.5092
Pr4S3N2,1.5093
Mg(FeO2)4,1.5096000000000005
Na6Sc4Ti4Si5S7O48,1.5098
NbP4(SCl)5,1.5099
Mg3N2,1.5099999999999998
Nb(SCl)2,1.5101999999999998
LiGa(GeSe3)2,1.5103999999999995
CsLu7Se11,1.5104999999999995
Y3CuSiSe7,1.5105
Na14Mg5Ti3Si6(SO8)6,1.5106000000000002
Na2Pd(SeO4)2,1.5109
BaLaMnSbO6,1.5111
Rb3NpH4O7,1.5111
UH10Cl2O15,1.5111
Ba16Re6O37,1.5112
UTl2O4,1.5113
MgV4FeCoO12,1.5114
Li4TiFe3Sn2(PO4)6,1.5116999999999998
Si2Hg6O7,1.5122
SrCuSF,1.5126
Mg2Ta10Si9(SO8)9,1.5126000000000002
Na8Ca3TiSi3(SO8)3,1.5128
S4(BrN)3,1.5129
YV(TeO4)2,1.5133
Cs2RbTlBr6,1.5133
NaMg30MnO32,1.5134
NaNd(GaSe2)4,1.5138
Na6Nb3Al5Si6(SO8)6,1.5143999999999995
NaSr6H17Pd2O17,1.5143999999999995
Na6Ti8Si7S5O48,1.5145
Sm4Ag2Se7,1.5147
Sb2TeSeF10,1.5148
TlSb3S5,1.5151
LiLa4NiO8,1.5154999999999994
LiTiV3O10,1.5159
Mo3P2PbO14,1.5159999999999996
Rb4Cl2O,1.5163000000000002
Li6V3P6WO24,1.5166999999999995
LiMnO4,1.5169
Sr8SnPb3O16,1.5169000000000006
U2Nb6O21,1.517
Rb4U5O17,1.517
NdNb3O9,1.5177000000000005
V2H3O5,1.5180999999999998
LiLaTi2O6,1.5183
CrSb(PO4)2,1.5183999999999995
Na14Mg4Ti4Si7S5O48,1.5184000000000002
Na2MgMnP2O7F3,1.5187
K2AgAsCl6,1.519
Ta4Mn2Zn3O16,1.5191
Nd4Cu2O7,1.5191999999999997
Ir2(Se3Br2)3,1.5193
Sb2Cl7F3,1.5194
Na6Zr4Si7Sn4S5O48,1.5203999999999998
Li4MnGe2S7,1.5209
Gd6S3(OF4)2,1.5214
ZrIn2O5,1.5216999999999996
NaMg14CrO16,1.5217
NiB18(H11C2)2,1.5217
CsAuO2,1.5219000000000005
Na8Ca2In2Si3(SO8)3,1.5221
NdFe5Bi4O15,1.5224000000000002
ThCN,1.5224000000000002
Na4Ge5O12,1.5224999999999995
La3ReO8,1.5225999999999995
Na2CaZr2Si10HO26,1.5226
MgGe(SO4)3,1.5227
Na2Ti4Si5Ge4S7O48,1.5232
Ba3BAsO3,1.5233
VGa2O5,1.5235
Li6V(SiO4)2,1.5238
Li5Ti2Fe5O12,1.5239999999999996
Rb2Ti(TeO4)3,1.524
Nb2Ge2O7,1.524
Sr3SbI3,1.5242
NaCdSbS3,1.5243000000000002
SrMg6CdO8,1.5248000000000004
Sr2MgCo2O5,1.5248999999999997
Ti7Sn3O20,1.5248999999999997
NaNbO3,1.5249
LiMnP4(H2O7)2,1.5253
MgBiMoO5,1.5255999999999998
Mg2TaVO6,1.5259999999999998
Rb2YAuF6,1.5261
Zn3Fe4(WO4)6,1.5262000000000002
Na2Y3NbSi2(SO6)4,1.5266000000000002
Rb3TlBr6,1.5276
Tl4SiSe4,1.5277000000000005
Ba2MgV2(Si2O7)2,1.5277000000000005
MgTi2V2O8,1.5279999999999996
MgCr6O16,1.5282
CdSbS2Br,1.5284999999999995
SbSe6IF6,1.5285
Lu3ScV4O12,1.5285000000000002
Mn4V4O13,1.5289
TbTl(PSe3)2,1.5290000000000004
MnAl2P2(H5O4)4,1.5294
MnBr2,1.5294
SbSe2NCl8,1.5296
USeO5,1.5298
YTlS2,1.5298999999999996
Sm3B(SO)3,1.5301000000000005
Tl6Si2O7,1.5302
V3Sb(PO4)4,1.5302999999999995
Rb3NaH4,1.5304
Na18Ta8Zn16Si9(S3O16)9,1.5305
Li4Ti2V3Cr4O18,1.5306000000000002
Tl3V(SeS)2,1.5306000000000002
MgV4Zn2O10,1.5314
Na8Ca3Sn(PO4)6,1.5316000000000003
NaMg2Nb2P3(SO8)3,1.5319999999999998
Mg3Co2(Si2O7)2,1.5325999999999995
Na6Sc5Nb3Si6(SO8)6,1.5333
Na6ZnO4,1.5336
TlSb3(AsS4)2,1.5340000000000005
VOF3,1.5340999999999998
MgZr(MoO4)2,1.5341000000000002
Na14Ti3Zn5Si6(SO8)6,1.5342
Rb3Cu5O4,1.5344999999999998
Na10La4Ti4Si7S5O48,1.5344999999999998
Zn3SbN3,1.5349
U(HO2)2,1.5349000000000002
ZnCo(GeO3)2,1.5351
Zr(PS3)2,1.5351
VPO4F,1.5351
LiFe2C2O7,1.5355
Rb2SbAuS4,1.5357999999999998
LiMoP2O7,1.5360999999999998
LiSm4(Mo2O7)2,1.5364999999999993
VCdCoO5,1.537
NaFe3O5,1.5371
Li6VCl8,1.5371
RbSbSe2,1.5375
Rb2Cr4O13,1.5376
Rb2LiMoCl6,1.5379999999999998
RbMnN2,1.5382000000000002
Mg3VO4,1.538400000000001
ZnSn2P2O9,1.5387999999999995
Ca4TiN4,1.5392
Li6AsS5I,1.5398
Li7Cr7P6(O8F)3,1.5399000000000005
Cs3Sb2I9,1.5405999999999995
Na5TiZn3P3(SO8)3,1.5407
Y3NbSiS5O24,1.5409
NaCaCeBiO6,1.541
Ba6Zr(Zn3S7)2,1.5411
Zn2SnWO6,1.5411
Sr2MgZnMoO6,1.5413999999999994
GeH10Se3N4,1.5415
LiTi3VO8,1.5416
RbFe2F6,1.5418
Pr2Te2O7,1.5419
Na21Mg8Nb4Si3(P5O24)3,1.5420000000000005
Tl2PSe3,1.5420999999999996
NaLiV(OF)2,1.5423000000000002
Na14Ca2Ti6Si9(SO16)3,1.5428000000000002
Li7Cr3Fe(PO4)6,1.5433
Li7VO5F,1.5437
Li6Cr3Sb(PO4)6,1.5437000000000003
Sn(PCl6)4,1.544
Mg30VCdO32,1.544300000000001
Na2VBAsO7,1.5444
CeCdO3,1.5446999999999995
MgGe2WO6,1.5448
Zr(TlS)4,1.5449000000000002
Cs2V5O13,1.5452
Na2ZnSe2,1.5452
Tm(CuS)3,1.5452000000000004
BaSn2S5,1.5453
NaTaSi3Sn3(SO8)3,1.5455
K3V3O8,1.5456
Na2Pd(S4O13)2,1.5456
Sr2UNiO6,1.5457999999999994
Li4Ti3V2Cr4O18,1.5461
Na2Mg5Sn3(SO4)12,1.5463
Sr(AuO2)2,1.5463
NaAgF4,1.5463999999999998
ZnGe(SO4)3,1.5473
Na3Li3Co2F12,1.5477
MnSn(PO4)2,1.5478
Na4MgO3,1.5485
Li6MnS4,1.5491
Zn3H6C6(IO6)2,1.5493
As2Se3S3(NF3)4,1.5494
Na2Y2Ga2SiS5O24,1.5495
Na3Ca2BiO6,1.5495
Na3GdI6,1.5496
Sr2TaCoO6,1.5498999999999996
Sn5(W4O11)2,1.5501
Mg30NiSnO32,1.5501000000000005
TeAuCl7,1.5508000000000002
MnPH4N(OF)3,1.5509
RbHfCu3Se4,1.5509000000000002
Li4FeOF5,1.5509999999999995
Mg3Si4(SnO7)2,1.5512999999999997
K4Ba(VS4)2,1.5514
Tl3SbS4,1.5515999999999996
CrPb2O5,1.5518000000000003
MnSi7N10,1.5520999999999994
W(ClO)2,1.5525
Ca(HoS2)2,1.5526999999999995
Cs2KCrCl6,1.5535
Mg7SiN6,1.5538999999999996
Li3Mo4P9O32,1.5540999999999998
Na2TcF6,1.5541
SbSe2S(NF3)2,1.5543
Na2Ta4Zn4Si3(S3O16)3,1.5543
Tb9Ga5S21,1.5546999999999995
TmCuPbS3,1.5547000000000004
Te3Mo5O18,1.5547999999999995
V2NiO6,1.5548000000000002
Rb3TbMgV2O8,1.5552
Tb3CuSnS7,1.5553
Na9Mg5NbSi3(SO6)6,1.5555
Na5Ca3TiP3(SO8)3,1.5557999999999998
YMoN3,1.5559999999999996
RbCr3O8,1.5565
LiFe2O3F,1.5570999999999997
ZnFe8Co3O16,1.5578000000000003
Tl3PSe4,1.5581
Na3Np(H7O6)2,1.5582
LuCuPbS3,1.5582000000000005
Ba5Y8Mn4O21,1.5582000000000005
Nb2NiO6,1.5589999999999995
InSb3Pb4O13,1.5594
Ti2In3FeO10,1.5595
Sr3LaMn2(WO6)2,1.5598999999999998
Nb3AgO8,1.5603000000000002
Ta2Zn2SiS5O24,1.5603000000000002
MgCr2(ClO)4,1.5604
ZnBiWO5,1.5606
Na3VSiCO7,1.5607000000000002
NaYTiSi(SO6)2,1.5608
Nb3(OF)5,1.5611000000000002
Na6MgSi4Sn3(SO12)2,1.5613
Sn2Sb2Pb4O13,1.5613
Zn2BiWO6,1.5619999999999998
Rb2LiTlCl6,1.5623
La4Cu4Se3SO4,1.5626000000000009
MgGe3P2(SO6)4,1.5628000000000002
TlSn2I5,1.5628999999999995
Sr2AlGaNi2O7,1.5629
NaFe2H3(SO4)2,1.5629000000000002
LiV2OF7,1.563
KCr3O8,1.5634
MgMnV4NiO12,1.5634
Tl3VSe4,1.5636
Sr(InSe2)2,1.5637
Na2In2Mo5O16,1.5639999999999996
Li3VOF4,1.5642
Li4Ti2V3(Fe2O9)2,1.5642
Lu3Fe5O12,1.5642
MgFe4O5F3,1.5643999999999996
V3Co10AsO20,1.5644
Tl3Cr2(PS4)3,1.5650000000000002
Na6Zn6SiSn2S11O48,1.5652
CuMo3I7,1.5653
MgFeAs2O7,1.5653000000000006
NaNb6O15F,1.5654999999999997
Re3S4Cl,1.5658
TlAgI2,1.5659
SrCaMnWO6,1.5660000000000007
K3Ta2S11,1.5662000000000005
K2In2P3Se10,1.5675
Y4Cu2O7,1.5678999999999998
Na6Nb3Ga5Si6(SO8)6,1.5681
TbAgS2,1.5681000000000005
Na3LaSi2GeSO12,1.5683
P3BrCl14,1.5683
LiVO3,1.5689000000000002
Na4CaSi2GeSO12,1.5690999999999995
MgV2Ag2(HgO4)2,1.5692999999999997
CsSmCdTe3,1.5693
Ti3TePb4O13,1.5694
NaIn2Ge2P3(SO8)3,1.5694999999999997
VIn3S4,1.5702000000000005
MgFe2(HO2)2,1.5702999999999996
Rb7NaZn2O6,1.5706
TlCrO4,1.5707
UH10C4S(NO3)3,1.5708000000000002
MgSc4(FeO3)4,1.5710999999999995
Te2AsCNF6,1.5716
Rb4Nb2S10O,1.5716
LuVO3,1.5724999999999998
Li4V3Cr3(WO8)2,1.5726
Te(HO)6,1.5729
ZnH18Ru2Br7N6,1.5730999999999995
Hg(AuF4)2,1.5738
Rb2CeCuBr6,1.5744
Sr2VP2O9,1.5748000000000002
Rb2MoS4,1.575
As4(Pb3S5)3,1.5756
Tl2CuI3,1.5759999999999996
Pr5AgS8,1.5768000000000004
Na8MgSi5Sn3SO24,1.5768999999999995
Ti3Fe2(BiO3)6,1.577
Cs7NaSi8,1.5773
Na14Ca4Si7Sn4S5O48,1.5775
Na6Sc4Si5Sn4S7O48,1.5775
Rb2InGaCl6,1.5778
P2Pd3S8,1.5779
Na14Ca4Ti4Si7S5O48,1.5779
Na6Si7Ge8S5O48,1.5779999999999998
NbBi7O13,1.5781999999999998
TiSnO4,1.5783000000000005
Pr3SiN3O2,1.5786999999999995
Na3Mg5Nb(SO4)9,1.5787
YSeF,1.5788000000000002
Tb3CuGeS7,1.5788000000000002
Rb2U2Cr3(H6O11)2,1.5791
LiNbO2,1.5794999999999997
Tl2Hg3S4,1.5797
Li4Re6S11,1.5798
MnH8SN2O4F3,1.5799999999999998
LiU4P3O20,1.58
MgTi(GeO3)2,1.5801999999999996
ZrN3O3F7,1.5802
LiAuS,1.5804
RbMg30MnO32,1.5804
Li4VP2(O4F)2,1.5804999999999998
Na30Nb8Zn16Si15(S7O48)3,1.5811000000000002
SmTl(PSe3)2,1.5815000000000006
NbCoO4,1.5819
Rb2AgBiBr6,1.582
Na2AgSbCl6,1.5820999999999998
NaY2Ga2PS5O24,1.5821
Li3V2CrO6,1.5825000000000005
LiCr3P3(HO6)2,1.5828999999999995
Na2Zn5Sn3(SO4)12,1.5830000000000002
Rb2LiVS4,1.5836
Li4Fe3Co(PO4)4,1.5837
Li4TiS4,1.5841
Li5V(PO4)3,1.5841
MoSCl7O,1.5847
SbH6C(NCl2)3,1.5847
TaCu3TeSe2S,1.5847000000000002
NaAlB14,1.5847999999999995
TiPbO3,1.585
YMnGaO5,1.585
RbTiCu3Se4,1.5854
VHg4P2O9,1.5856
Sr3(GaN2)2,1.5856000000000003
Na4Mn2P2O7F6,1.5858
Sr2Mg(MoO4)2,1.5864999999999996
Mn(C2N3)2,1.5869
Nd2TeS2,1.5871
Na6Ge2Se7,1.5871000000000002
Sr2La3Ti2Cr3O15,1.5872000000000002
Li8VNi3(PO4)6,1.5875
YNi3Se2ClO8,1.5878
Cs2LiVS4,1.5878
Na3MgNbSi2SO12,1.5882999999999998
YEr(FeO3)2,1.5885000000000002
Pr3CuSiS7,1.5885999999999996
UTe3Pb2O11,1.5886999999999991
NaFeAsO4F,1.5887000000000002
LiZnRhF6,1.5896
Na2Nb5Ga3Si6(SO8)6,1.5900999999999998
Ta10Zn2Si9(SO8)9,1.5901
Cs2AlTlI6,1.5910999999999995
Li2Mn(PO3)5,1.5914
NaNb(CuS2)2,1.5916
Tl3SbS3,1.592
NaInGeP2SO12,1.5921999999999998
Y4Co13Si2(SbO14)2,1.5925000000000002
Rb4PbO4,1.5927000000000002
VP(H2O3)2,1.5931000000000002
Sr3U11O36,1.5934
Sr2LiReO6,1.5935
ZnNiP2WO9,1.5939
Na5Y3TiSi3(SO8)3,1.5944
Na2Nb4Si7Sn4S5O48,1.595
Rb6HgS4,1.5950000000000002
NaLiO,1.5957
CsMnCrF6,1.5958
VSb(SeO3)4,1.5958
KAsSe2,1.5959
Na3MgVH6O7,1.5959
AsXe2F9,1.5961
Te3WO12,1.5961000000000003
Sb8(PbS5)3,1.597
KInCl3,1.5970999999999995
Nb4VO12,1.5973
Na18Ta16Zn8Si21(S5O48)3,1.5977
Li12VNi3P4(CO7)4,1.5977
Rb2PdN2(ClO2)2,1.5977
Sr2Ti6N2O11,1.5979
TaCu3Se4,1.5980000000000003
Mg2Al3CrS8,1.5980000000000008
Mn2VPO7,1.5981999999999998
NaLi(AsS2)2,1.5983999999999998
Na4Mg(MoO4)2,1.5988999999999998
SrMn(GeO3)2,1.5991
Li3VSiBO7,1.5995
Ba(NdSe2)2,1.5999
Nb12WO33,1.5999
K3NiO2,1.5999
Na4Ti2Al2Si3(SO8)3,1.5999
Li2NbCr3O8,1.5999
MgSn2P2O9,1.6000999999999994
Y2VO5,1.6001
Li5Fe(SiO4)2,1.6009
LiCu3(SiO3)2,1.601
RbSmGeSe4,1.6011000000000002
Na14Mg5Si6Sn3(SO8)6,1.6016999999999997
MgMn2Al2O6,1.6018000000000008
NiPtF6,1.6021
Li3Nb2Fe3O10,1.6023999999999998
Li8FeCo3O8,1.6028999999999998
Na2P2PdO7,1.6031000000000002
Na5Zn3GeP3(SO8)3,1.6034
TcAgO4,1.6034000000000002
UVAgO6,1.6036
As2Pb2S5,1.6038
MgBiWO5,1.6053000000000002
Zn3Fe8CoO16,1.6054999999999997
Li2CrF4,1.6057
TiTl2(TeO4)3,1.6058
Cr3(FeO6)2,1.6062
Ni17(As3O16)2,1.6063
Rb3NpH8O9,1.6067
ZnNiF6,1.6071
MgCoO2,1.6075
Lu2ScV3O9,1.6076999999999997
Sr(BeN)2,1.6078999999999994
Rb8Mg(FeO4)2,1.6079
Si6Bi3N11,1.6079999999999997
Rb8Fe2O7,1.6081
Mo2P2O9,1.6082
MgCrF6,1.6087
Zn3InCuS5,1.609
Na4YSi2GePO12,1.6092000000000002
SrCaYVO6,1.6094000000000004
AlInSe3,1.6095999999999997
Cr2WO6,1.6095999999999997
Rb4Cu5Cl9,1.6096
TbBi5O9,1.6102
Na6Sc6Ta2Si5S7O48,1.6104
Na8MgSi5Ge3SO24,1.6106000000000005
Na2Ta2In6Si3(S3O16)3,1.6113
Nd5AgS8,1.6121999999999996
Sr(FeO2)2,1.6125
Er2Mo3H2Se2O17,1.6125000000000005
Na4MgSi2GeSO12,1.6126
LiMn3H6(SeO3)8,1.6130999999999998
Sc3NbSiS5O24,1.6135000000000002
Ca2YVO5,1.6137
CoF4,1.614
Rb3NaPbO4,1.6142999999999998
Na8Zn3Si3Ge(SO8)3,1.6145999999999998
Sn2SI2,1.6146000000000005
Na4Ti2Ga2Si3(SO8)3,1.615
Ti(Sn2O5)2,1.6151
TaCu3(TeSe)2,1.6151000000000004
SrCaDyVO6,1.6157000000000004
CoSb3(PO4)6,1.616
Pr(WO3)2,1.6166
Te(WO4)3,1.6167
Na4TiZnSi(PO6)2,1.6168
NaLiCdS2,1.6168999999999998
NaVSiCO7,1.6175000000000002
CoH2SeO4,1.6176
CaBiIO2,1.6177
ThI4,1.6178
NdCuSO,1.6179999999999994
Ti2CoO5,1.6182000000000003
NbAg2(PS4)2,1.6183
NaLa2Sn2P3(SO8)3,1.6183999999999998
RbLaZr6FeCl18,1.6184
Sr2TbVO6,1.6184000000000005
NaZn2Sn2PS5O24,1.6189
YCr3O6,1.6191
Li4Ti4V(Fe2O9)2,1.6191999999999998
Na2VSiCO7,1.6193
Ti3(SnO5)2,1.6193999999999995
P2PdO6,1.6196000000000002
NaV(PO4)2,1.6197
Zn3PBr3,1.6198
BaCaYVO6,1.6203
NClOF4,1.6206999999999998
Tb2MgV2O8,1.6209000000000002
Li4MoP2O9,1.6212000000000002
Zn2CrFe3O8,1.6213000000000002
GdSClO4,1.6219
LiNb7V12O48,1.6223
Rb2NaMoCl6,1.6223999999999998
Rb2TeI6,1.6225
Mg3SbN,1.6233999999999993
Na3LaSiSn(PO6)2,1.6235
VPH5O7,1.6235
Ge3N4,1.6238
Na2MgGeP2SO12,1.6241
MnInBr3,1.6242
Al2CdTe4,1.6245000000000005
Ti2Sb2Pb4O13,1.6246999999999998
Rb2YAuBr6,1.6251
Na2GeSe3,1.6256
Tm2TiO5,1.6258
ZnGe7N10,1.626
TiAlFeO5,1.6263
Na5SbO5,1.6264
Na9Fe2O7,1.6267
Na5Mg2Nb2SiP5O24,1.6267999999999998
Rb2AgSbCl6,1.6275
K3SnSe3,1.6275999999999995
Zr2AgN3,1.6275999999999995
Na5MgSbO5,1.6279999999999997
VAgO3,1.6283
Na2LiTlCl6,1.6283
TaMn2FeO6,1.6284
Ca2AlMoO5,1.6287000000000005
Ba2SmVO6,1.6287000000000005
ErCuS2,1.6292999999999995
Mg30CrSnO32,1.6296000000000008
Zr(CuCl3)2,1.6303999999999998
Rb5TiSb7O22,1.6305
SrCaSmBiO6,1.6307999999999994
LiLa4MnO8,1.6309000000000005
SrTi7N10,1.6312000000000002
SrNb6O16,1.6323
TbCuPbS3,1.6325000000000005
MnH8C2NCl3,1.6327000000000005
LiCa2Nb3O10,1.6329999999999998
Rb4CO4,1.6338
SbSCl9,1.6343
Sr3UIn2O9,1.6343
NdSO,1.6345
Li5Co7O3F13,1.6348
Na2Ta2Al6Si3(S3O16)3,1.6352000000000002
ZnFe2As2(HO5)2,1.6353
NaTiFeO4,1.6353
Nd3CuSiS7,1.6357
K2Nb6Ag(PO8)3,1.6358
Co3(PO4)2,1.636
Rb2AgSbS4,1.6372
Sr2SmVO6,1.6372
VP6(WO8)3,1.6373
Mg30CrNiO32,1.6373999999999995
LiCo3OF5,1.6378
Zn2IN,1.6378
Li6Fe5WO12,1.6384000000000003
Cs2Pt3S4,1.6386000000000005
TlNO2,1.6390999999999998
U2CoSi2(H7O9)2,1.6392
Li6Fe2O5F2,1.6397
Li9V5(SiO8)2,1.6405000000000003
Mo2P2O11,1.6407
Li4Fe2O5,1.6407000000000005
Na6Sc4Nb4Si7S5O48,1.6408
Ti3ZnSiS5O24,1.6408
Sm2PbSe4,1.6411000000000002
Mg30CdSnO32,1.6414999999999988
PrCuSO,1.6415999999999995
NaHf3NbSi3(SO8)3,1.6417
Rb3Ag9(SbS3)4,1.6418000000000004
Er3CuSnS7,1.6421
Li5Fe5(PO4)6,1.6421
Zn2Mo(WO4)2,1.6422
Na4TiZn3SiS5O24,1.6426
Ba(NdS2)2,1.6426000000000005
HgI,1.6426000000000005
RbNaMg30O31,1.6428000000000005
SrSb(PO4)2,1.6429999999999998
Sm9Al5Se21,1.6431999999999998
V2Ge2O7,1.6433
Li6Mn2B4SO16,1.6433999999999995
Na2TbCuCl6,1.6434
Ba2BiSbO6,1.6438999999999997
Na2LaSn(PO4)3,1.6441
Mg30VSnO32,1.6445000000000007
Li3VSiO5,1.6445999999999996
Pr9Ga5S21,1.6447000000000005
Li3Fe(BO3)2,1.6448000000000005
TiCrSbO6,1.6451000000000002
Li6MnCoP2(CO7)2,1.6453000000000002
Na18Nb8Zn4Si15(SO24)3,1.6456
NdTlS2,1.6456
VFe2BO5,1.6459999999999997
Li4Co3WO8,1.6459999999999997
MnV2(PbO4)2,1.646
Li9Fe5(SiO8)2,1.6460999999999997
BaH2,1.6461
RbInSe2,1.6462
SbH5(Cl3O)2,1.6468
Rb5Re3S7,1.6469999999999998
Na5Mg3TiP3(SO8)3,1.6471
Na8ZnSi5Sn3SO24,1.6475
Y2W2O9,1.6475
Na3W3Cl13,1.6475
Sr2NdVO6,1.6477000000000004
Sb2XeF16,1.6479
Na8ZnSi5Ge3SO24,1.648
Nb2MoO8,1.6481
LiMo3P3O16,1.6483
MgCo(GeO3)2,1.6486000000000005
LiVAsO5,1.6489000000000005
TaCu3Se3S,1.6491000000000002
Nd2MgCr2O8,1.6496999999999995
Rb2MgO2,1.6497
Rb2LiRhCl6,1.6499
V2ZnP2O9,1.6501
Na4Sn3S8,1.6505999999999998
Li5Fe3(CoO5)2,1.6507999999999998
Na12Mg4Nb2Si6(SO12)3,1.6511
YMgCu3Se4,1.6511999999999998
Rb2TlGaBr6,1.6518
Ti3Fe(BiO3)5,1.6518000000000006
MgV2P2(O4F)2,1.652
Na18Ca4Nb20Si27(SO16)9,1.6525
SnHg7(P2Br3)2,1.6526999999999998
LiP7,1.6526999999999998
ZnH24Au2C12S8(NCl)4,1.6528
Sr4Ti3Nb2O15,1.6529000000000005
Mg2C3,1.6533000000000002
TiSiO4,1.6536999999999995
Tb12Si5S28,1.654
SrMg6FeO8,1.6544
Li7V3(SiO6)2,1.6544
Sr3P14,1.6551
Zn3Fe3(AsO4)4,1.6552
Na2Zr4Nb4Si7S5O48,1.6554000000000002
Pr2TeO2,1.6555999999999995
Sm3CuSiS7,1.6556999999999995
VH4C4O6F,1.6558000000000002
Ag4Mo2Se3O16,1.6559
Li4MnFe2(BO3)4,1.6559
SnBr2,1.656
V2Bi24O41,1.6562
Na9Ca5Nb7(PO4)18,1.6562
Pr2MnNiO6,1.6564
LiHo2Cu(SiO3)4,1.6564000000000003
Li4Fe3(BO3)4,1.6565
Rb2Sn2Hg3S8,1.6569999999999998
Na2Ti2Si3Sn2(SO8)3,1.6570999999999998
Na14Ca2Si9Ge6(SO16)3,1.6572999999999998
V3ZnO8,1.6574
TiSn(PO4)2,1.6575000000000002
Na7Ti2Zn2SiP5O24,1.6576
MnHgC4(SN)4,1.658
Li4VTe(WO6)2,1.658
Na7Mg3Nb(PO4)6,1.6582
Sr2PrVO6,1.6584
Ti2Cr3Sb3O16,1.6584999999999996
Pr2PbSe4,1.6586999999999996
Li5Fe3(BO3)4,1.6586999999999998
NaInSiSn(SO6)2,1.6593
Tb2Au5F21,1.6596
Na6Ti4Si7Sn4S5O48,1.6596000000000002
CsK2RuF6,1.66
Li5TlO4,1.66
Pr2MgCr2O8,1.66
Pr3CuGeS7,1.6603000000000003
ZnSb3XeF23,1.6604
K4Ta2S11,1.6605
U11(PbO12)3,1.6609999999999996
Na14Mg4Si7Sn4S5O48,1.661
Li4Ti3Co2Sn3O16,1.6612000000000005
Na8CaSi5Sn3SO24,1.6616999999999995
B2Pb2S5,1.6624
Cs2AgSbCl6,1.6624
Mg2Nb4Si3(SO6)6,1.6625
TaTi9Al3Zn23O48,1.6626000000000003
Tl4Hg3Sb2(As2S5)4,1.6628000000000005
Tb9Al5Se21,1.6628000000000005
Tm2MgV2O8,1.6629000000000005
Li3RhF6,1.6630999999999998
Y3Fe5O12,1.6633
FeMoHSeO7,1.6635999999999995
Na18Mg8Ta16Si21(S5O48)3,1.6638000000000002
SrLa4TiCr4O15,1.6639999999999997
Cs2Sb8S13,1.664
C2S3I,1.6642
Fe4P3(HO5)3,1.6645
Rb2CrAuF6,1.6646
NbIn3SiS5O24,1.6647999999999998
MgVAsO5,1.6650000000000005
Pr2ZnPtO6,1.6650999999999998
Sr2FeSbO6,1.6652000000000005
Nd9Ga5S21,1.6652999999999998
Rb2SnSe3,1.6655
NaTaTi3Si3(SO8)3,1.6658000000000002
Rb6Cl4O,1.6658000000000002
MgAsH7O4,1.6659
Mg2Ta2VO8,1.6662
Na10Mg2Ti6Si7S5O48,1.6664
NbAl3SiS5O24,1.6665
Se3(NO6)2,1.6671
ReSbO6,1.6674
Na2Hf4Si5Ge4S7O48,1.6682
K6Sn2Se7,1.6684
Sb9S4F39,1.6685
Na4Ca3TiSiS5O24,1.6687
Sc2PbS4,1.6691000000000005
Na5Y2SiGe2P5O24,1.6694