formula,band_gap
Sc3Te4,0.0
Sc3Te,0.0
Sc3SnC,0.0
Sc3Sn,0.0
Sc3Tl,0.0
Sc6Al16Ir7,0.0
Sc4B12Rh17,0.0
Sc4BCl6,0.0
Sc4TaFe19P12,0.0
Sc4Si6Ir7,0.0
Sc4Si2Pt7,0.0
Sc4NCl6,0.0
Sc4Mn4Si7,0.0
Sc4Ge6Rh7,0.0
Sc4Ge6Os7,0.0
Sc4Ge6Ir7,0.0
Sc4Co7Ge6,0.0
Sc4Co4Ge7,0.0
Sc4Co3Sb4,0.0
Sc4Ge6Ru7,0.0
Sc6Al16Ni7,0.0
Sc6Al16Os7,0.0
Sc6Al16Pd7,0.0
ScAg4,0.0
ScAg3,0.0
ScAg,0.0
Sc9Te2,0.0
Sc9Ni5Ge8,0.0
ScAgGe,0.0
Sc8CuTe3,0.0
Sc8B8As3Rh20,0.0
Sc7P3,0.0
Sc7NCl12,0.0
Sc7Cr5Ge9,0.0
ScAgSn,0.0
ScAl,0.0
ScAlFe,0.0
ScAlCu2,0.0
ScAlCu,0.0
ScAlCo2,0.0
ScAlCo,0.0
ScAlAg2,0.0
ScAl2Ni,0.0
ScAl2,0.0
ScAlAu,0.0
Sc7CBr12,0.0
Sc6MnTe2,0.0
Sc6InCo2,0.0
Sc6Ga16Ru7,0.0
Sc6Ga16Rh7,0.0
Sc6FeTe2,0.0
Sc6CuTe2,0.0
Sc6CoTe2,0.0
Sc6Co16Si7,0.0
Sc6CdTe2,0.0
Sc6Al16Ru7,0.0
Sc6Al16Rh7,0.0
Sc6FeSb2,0.0
Sc7CI12,0.0
Sc6Ni18Ge11,0.0
Sc7BCl12,0.0
Sc7(Mn3Ge4)2,0.0
Sc7(CCl5)2,0.0
Sc6Te2Ru,0.0
Sc6Te2Pd,0.0
Sc6Si7Ni16,0.0
Sc6Pb5,0.0
Sc6NiTe2,0.0
Sc6Te2Os,0.0
Pr4Fe3Si4Ru,0.0
Sc3Si4Ni11,0.0
Sc3Si3Rh,0.0
Sc2SnAu2,0.0
Sc2TcAu,0.0
Sc2TcHg,0.0
Sc2TcNi,0.0
Sc2TcPt,0.0
Sc2Te,0.0
Sc2Te3,0.0
Sc2TiB2Ir5,0.0
Sc2TlAg,0.0
Sc2TlC,0.0
Sc2TlCd,0.0
Sc2TlHg,0.0
Sc2TlTc,0.0
Sc2TlZn,0.0
Sc2ZnRu,0.0
Sc2ZnPt,0.0
Sc2ZnPd,0.0
Sc2ZnOs,0.0
Sc2ZnIr,0.0
Sc2ZnIn,0.0
Sc2ZnCu,0.0
Sc2ZnAu,0.0
Sc2ZnAg,0.0
Sc2VO5,0.0
Sc2V3Si4,0.0
Sc2ZnGa,0.0
Sc2SiB2Ir5,0.0
Sc2Si4W3,0.0
Sc2OsPd,0.0
Sc2OsAu,0.0
Sc2NiRu,0.0
Sc2NiRh,0.0
Sc2OsPt,0.0
Sc2NiB2Ir5,0.0
Sc2Ni7,0.0
Sc2Ni12P7,0.0
Sc2Nb3Si4,0.0
Sc2NiIr,0.0
Sc2OsRh,0.0
Sc2Pd,0.0
Sc2Si2Pt3,0.0
Sc2RuRh,0.0
Sc2RuPt,0.0
Sc2RuAu,0.0
Sc2P7Ru12,0.0
Sc2PdRu,0.0
Sc2PdRh,0.0
Sc2PdPt,0.0
Sc2PdAu,0.0
Sc2Re3Si4,0.0
Sc3(CuGe)4,0.0
Sc3(CuSi)4,0.0
Sc3(FeSi3)2,0.0
Sc3Os,0.0
Sc3NiC4,0.0
Sc3Ni11Ge4,0.0
Sc3Nb,0.0
Sc3IrC4,0.0
Sc3InC,0.0
Sc3Hg,0.0
Sc3P2,0.0
Sc3Si3Ni2,0.0
Sc3Si3Ni,0.0
Sc3Si3Ir,0.0
Sc3RuC4,0.0
Sc3RhC4,0.0
Sc3Re2Si3,0.0
Sc3Pb,0.0
Sc3Ga5Ni,0.0
Sc3AlC,0.0
Sc39N34,0.0
Sc3(SiNi)4,0.0
Sc3(Si2Ni)2,0.0
Sc3(ReSi2)2,0.0
Sc3(Ni10B3)2,0.0
Sc3(MnNi2)2,0.0
Sc3(MnGa3)2,0.0
Sc3(Ga4Fe5)4,0.0
Sc3(Ga3Fe)2,0.0
Sc3(Ga2Ni)2,0.0
Sc3(NiGe)4,0.0
Sc3GaC,0.0
Sc3B2Rh5,0.0
Sc3Ga5Co,0.0
Sc3Ga,0.0
Sc3CoC4,0.0
Sc3Co2Ge3,0.0
Sc3Co,0.0
Sc3Cd,0.0
Sc3BPb,0.0
Sc3Co2Si3,0.0
SmAlAg2,0.0
Pr4Fe29Si5,0.0
PmBi3,0.0
PmBr2,0.0
PmCd3,0.0
PmCdAu2,0.0
PmCdCu2,0.0
PmCdPd2,0.0
PmCl2,0.0
PmCu2Sn,0.0
PmEr3,0.0
PmDyZn2,0.0
PmDyRu2,0.0
PmDyRh2,0.0
PmDyMg2,0.0
PmDyIn2,0.0
PmDyCu2,0.0
PmDy3,0.0
PmCu3,0.0
PmDyHg2,0.0
PmB3,0.0
Pm3Y,0.0
Pm3Tm,0.0
Pm3Tl,0.0
Pm3Th,0.0
Pm3Sn,0.0
Pm3Si,0.0
Pm3Pr,0.0
Pm3Zr,0.0
PmAlAu2,0.0
PmAlAg2,0.0
PmAl3,0.0
PmAgHg2,0.0
PmAg2Sn,0.0
PmAg2Pb,0.0
Pm5Mg,0.0
PmAgAu2,0.0
PmErIn2,0.0
PmHoIr2,0.0
PmHoMg2,0.0
PmHoRh2,0.0
PmHoRu2,0.0
PmHoTl2,0.0
PmHoZn2,0.0
PmI,0.0
PmIn3,0.0
PmInAu2,0.0
PmInCu2,0.0
PmInHg2,0.0
PmInNi2,0.0
PmInPd2,0.0
PmInPt2,0.0
PmLu3,0.0
PmMgHg2,0.0
PmMgAu2,0.0
PmMgAg2,0.0
PmMg3,0.0
PmHoIn2,0.0
PmMg2Sc,0.0
PmMg,0.0
PmLuZn2,0.0
PmLuTl2,0.0
PmLuMg2,0.0
PmLuIn2,0.0
PmLuAl2,0.0
PmHoCu2,0.0
PmHoAl2,0.0
PmHo3,0.0
PmGaPd2,0.0
PmGaCu2,0.0
PmGaAu2,0.0
PmGaAg2,0.0
PmEuZn2,0.0
PmGaRh2,0.0
PmEuHg2,0.0
PmEu3,0.0
PmErZn2,0.0
PmErTl2,0.0
PmEuPt2,0.0
PmGdCu2,0.0
PmHo,0.0
PmHgRh2,0.0
PmHg3,0.0
PmH3,0.0
PmGePd2,0.0
PmGe3,0.0
PmGdMg2,0.0
PmGdIn2,0.0
Pm3Pd,0.0
Pm3Pb,0.0
Pm3Nd,0.0
Pm2CuPt,0.0
Pm2CuRu,0.0
Pm2CuSi,0.0
Pm2CuSn,0.0
Pm2GaAg,0.0
Pm2GaCu,0.0
Pm2GaRu,0.0
Pm2GaSn,0.0
Pm2GeAu,0.0
Pm2GePd,0.0
Pm2HgGe,0.0
Pm2InHg,0.0
Pm2MgGe,0.0
Pm2MgGa,0.0
Pm2MgCd,0.0
Pm2Mg,0.0
Pm2CuNi,0.0
Pm2IrRu,0.0
Pm2IrRh,0.0
Pm2IrPt,0.0
Pm2IrPd,0.0
Pm2IrAu,0.0
Pm2CuIr,0.0
Pm2CuGe,0.0
Pm2CuAu,0.0
Pm2AgPt,0.0
Pm2AgIr,0.0
Pm2AgHg,0.0
Pm2AgGe,0.0
Pm2AgAu,0.0
Pm(Mg4Al3)4,0.0
PdW,0.0
PdSe,0.0
PdS,0.0
Pm2MgSi,0.0
Pm2AgRu,0.0
Pm2AlCd,0.0
Pm2CoRu,0.0
Pm2CoNi,0.0
Pm2CoIr,0.0
Pm2CoCu,0.0
Pm2CdSn,0.0
Pm2AgSn,0.0
Pm2CdPb,0.0
Pm2CdHg,0.0
Pm2CdGe,0.0
Pm2CdGa,0.0
Pm2AlZn,0.0
Pm2AlIn,0.0
Pm2AlGa,0.0
Pm2MgSn,0.0
Pm2NiGe,0.0
Pm3Cu,0.0
Pm3Cd,0.0
Pm3Au,0.0
Pm3Al,0.0
Pm3Dy,0.0
Pm3Ag,0.0
Pm2ZnRu,0.0
Pm2ZnRh,0.0
Pm2ZnPt,0.0
Pm2ZnPb,0.0
Pm3Er,0.0
Pm3Mg,0.0
Pm3Ho,0.0
Pm3Hg,0.0
Pm3Ge,0.0
Pm3Eu,0.0
Pm2ZnOs,0.0
Pm2ZnIn,0.0
Pm2RuRh,0.0
Pm2PtRh,0.0
Pm2PdRu,0.0
Pm2SiAg,0.0
Pm2PdRh,0.0
Pm2PdAu,0.0
Pm2NiRu,0.0
Pm2NiRh,0.0
Pm2NiPt,0.0
Pm2NiPd,0.0
Pm2NiIr,0.0
Pm2SiNi,0.0
Pm2ZnGe,0.0
Pm2ZnAg,0.0
Pm2TlZn,0.0
Pm2TlSn,0.0
Pm2SiHg,0.0
Pm2TlHg,0.0
Pm2TlAg,0.0
Pm2SnAu,0.0
Pm2TlCd,0.0
PmN,0.0
PrCoP,0.0
PrCoSb3,0.0
PrCrSb3,0.0
PrCrSe3,0.0
PrCu,0.0
PrCu2,0.0
PrCu3(RuO3)4,0.0
PrCu4Pd,0.0
PrCu5,0.0
PrDy3,0.0
PrCuSn2,0.0
PrCuSn,0.0
PrCuSi,0.0
PrCuSb2,0.0
PrCoGe3,0.0
PrCuPb,0.0
PrCuGe2,0.0
PrCuGe,0.0
PrCu9Sn4,0.0
PrCuO3,0.0
PrCoGe,0.0
PrCdAu,0.0
PrCdAg2,0.0
PrCd2Cu9,0.0
PrCdCu,0.0
PrCd,0.0
PrBiRu2O7,0.0
PrBiRh,0.0
PrBiPd2,0.0
PrCd11,0.0
PrCo9Si4,0.0
PrCo8P5,0.0
PrCo5P3,0.0
PrCo5H4,0.0
PrCo5,0.0
PrCo4B,0.0
PrCo3Ni2,0.0
PrCo3,0.0
PrCo2B2C,0.0
PrCo2,0.0
PrCdPd,0.0
PrBiPd,0.0
PrDyC4,0.0
PrFeSi2,0.0
PrGa,0.0
PrGa2,0.0
PrGa2Co3,0.0
PrGa2Ni,0.0
PrGa2Ni3,0.0
PrGa3,0.0
PrGa3Au,0.0
PrGa3Pt,0.0
PrGa4Os,0.0
PrGa6,0.0
PrGaAu2,0.0
PrGaCo,0.0
PrGe2Ir,0.0
PrGe2,0.0
PrFeSi,0.0
PrGdAl4,0.0
PrGaPd2,0.0
PrGaPd,0.0
PrGaNi,0.0
PrGaCo2,0.0
PrGaSi,0.0
PrFeSb3,0.0
PrFeSb2,0.0
PrErMg2,0.0
PrErFe14B,0.0
PrErCo17,0.0
PrErZn2,0.0
PrEr3Mn8,0.0
PrEr3,0.0
PrDyTl2,0.0
PrDyMg2,0.0
PrDyIn2,0.0
PrDyAl4,0.0
PrEu3,0.0
PrFeNi4,0.0
PrFeCu,0.0
PrFeCo,0.0
PrEuAg2,0.0
PrFe4(CuO4)3,0.0
PrEuZrVO6,0.0
PrEuZn2,0.0
PrEuNbVO6,0.0
PrEuHfVO6,0.0
PrBi3,0.0
PrBi2Au,0.0
PmSe,0.0
PmSe2,0.0
PmSm,0.0
PmSmAl2,0.0
Pr7Rh3,0.0
Pr7Ru3,0.0
Pr7Si5Ni2,0.0
PrAg2,0.0
PrAg,0.0
Pr9Ga4,0.0
PmSc3,0.0
Pr8Sb14Pt17,0.0
Pr8Ni4O17,0.0
Pr8Ni18P11,0.0
Pr8Ga3Co,0.0
Pr8C8Cl5,0.0
Pr8(BCl)7,0.0
Pr8Sb14Rh17,0.0
PmSbRh2,0.0
PmSbPd2,0.0
PmNi3,0.0
PmNi2Sn,0.0
PmNdZn2,0.0
PmNdTl2,0.0
PmNdRu2,0.0
PmNdMg2,0.0
PmNdIr2,0.0
PmNdHg2,0.0
PmNdGa2,0.0
PmNd,0.0
PmPbAu2,0.0
PmPd3,0.0
PmS2,0.0
PmS,0.0
PmRh2Pb,0.0
PmPuAu2,0.0
PmPd2Pb,0.0
PmPrZn2,0.0
PmPrIr2,0.0
PmPrIn2,0.0
PmPrHg2,0.0
PmPr3,0.0
PmPr,0.0
PmPrTl2,0.0
PrAgAu2,0.0
PrAgGe,0.0
PrB12,0.0
PrAu6,0.0
PrAu2,0.0
PrAs2Au,0.0
PrAs,0.0
PrAlZn,0.0
PrAsSe,0.0
PrAlSi2,0.0
PrB2Rh2C,0.0
PrBi,0.0
PrBPt4,0.0
PrBPt3,0.0
PrB2Rh3,0.0
PrB6,0.0
PrB4ClO8,0.0
PrB4(IrOs)2,0.0
PrBPd3,0.0
PmMgZn2,0.0
PrAlRh,0.0
PrAlPd2,0.0
PrAl3,0.0
PrAl2Ni,0.0
PrAl22O34,0.0
PrAl2,0.0
PrAl,0.0
PrAgSb2,0.0
PrAl3Ni2,0.0
PrAlNi4,0.0
PrAlCu4,0.0
PrAl3Cu,0.0
PrAl7Au3,0.0
PrAl4Ni,0.0
PrAl4Co,0.0
PrAlAu,0.0
PdPtAu,0.0
NpAl3,0.0
NpAl3Pd2,0.0
NpAl4,0.0
NpAs2,0.0
NpAs3,0.0
NpAsS,0.0
NpAsSe,0.0
NpB12,0.0
NpB2C,0.0
NpB4,0.0
NpCuPO,0.0
NpCo3,0.0
NpCdPt2,0.0
NpCdAu2,0.0
NpC,0.0
NpBi,0.0
NpB6,0.0
NpCd11,0.0
Np3Te4,0.0
Np3Se4,0.0
Np2InNi2,0.0
Np2N3,0.0
Np(SiRu)2,0.0
Np(SiNi)2,0.0
Np(SiIr)2,0.0
Np(SiAu)2,0.0
Np2O3,0.0
Np2Re3Si5,0.0
Np3As4,0.0
Np2O5,0.0
Np2Si4Mo3,0.0
Np2Se5,0.0
Np2Se3,0.0
Np2SO2,0.0
Np2S5,0.0
Np2SeO9,0.0
NpF3,0.0
NpPt,0.0
NpPt3,0.0
NpRu2,0.0
NpS,0.0
NpSO,0.0
NpSb,0.0
NpSb2,0.0
NpScRu2,0.0
NpScTc2,0.0
NpSe,0.0
NpSe3,0.0
NpSeO,0.0
NpTiO3,0.0
NpTe3,0.0
NpTe2,0.0
NpTe,0.0
NpPd3,0.0
NpSnIr,0.0
NpSnAu2,0.0
NpSi3,0.0
NpSi2,0.0
NpSi,0.0
NpSnRh2,0.0
NpPS4,0.0
NpH2,0.0
NpGe3,0.0
NpGaRh2,0.0
NpHgO3,0.0
NpGa5Rh,0.0
NpGa5Fe,0.0
NpGa4,0.0
NpGa5Ni,0.0
NpF4,0.0
NpIn3,0.0
NpP3,0.0
NpP,0.0
NpOs2,0.0
NpO,0.0
NpNiSn,0.0
NpNi5,0.0
NpN,0.0
NpIr2,0.0
NpNi2,0.0
Np(OF)2,0.0
NiHO2,0.0
NiHg4,0.0
NiHgO2,0.0
NiI2,0.0
NiIr,0.0
NiMo2P,0.0
NiMo4N5,0.0
NiMo8P3,0.0
NiMoP,0.0
NiMoP2,0.0
NiMoP8,0.0
NiP,0.0
NiP8W,0.0
NiP4,0.0
NiP3W2,0.0
NiP3,0.0
NiH5CN(ClO)2,0.0
NiP2,0.0
NiH2SO5,0.0
NiBiO3,0.0
NiBi6Rh,0.0
NiBi3,0.0
NiBi,0.0
NiB,0.0
NiAuO2,0.0
NiAu3,0.0
NiAsS,0.0
NiAsRh,0.0
NiPO4,0.0
NiBiSe,0.0
NiH,0.0
NiGePt2,0.0
NiGe2Pd,0.0
NiGe2,0.0
NiBiP2O9,0.0
NiF3,0.0
NiF2,0.0
NiCl2,0.0
NiCO3,0.0
NiBrO,0.0
NiBr2,0.0
NiPPd,0.0
NiTe2,0.0
NiTe,0.0
NiSnRh2,0.0
NiSnF6,0.0
NiSeO3,0.0
NiSe2,0.0
NiSe,0.0
NiSn,0.0
NiTePd,0.0
NiW3N,0.0
Np(GeRh)2,0.0
Np(GePd)2,0.0
Np(FeSi)2,0.0
Np(FeGe)2,0.0
Np(CuSi)2,0.0
Np(CuGe)2,0.0
NiTeSe,0.0
Np(CoSi)2,0.0
Np(BH4)4,0.0
Np(Al2Fe)4,0.0
Np,0.0
Np(CoGe)2,0.0
NpV4O12,0.0
NiSbSe,0.0
NiSbP2O9,0.0
NiPtO2,0.0
NiPt3,0.0
NiPd3,0.0
NiPbO3,0.0
NiPW,0.0
NiPSe3,0.0
NiPS,0.0
NiPb,0.0
NiSbS,0.0
NiRh,0.0
NiSb2,0.0
NiSb(PO4)2,0.0
NiSb,0.0
NiS2,0.0
NiRu,0.0
NiS,0.0
PdPtF6,0.0
NpZn,0.0
PaSnPd2,0.0
PaTc2Ge,0.0
PaTc2Sn,0.0
PaTc3,0.0
PaTe2Au,0.0
PaTe3,0.0
PaTi,0.0
PaTi3,0.0
PaZn3,0.0
PaZnAu2,0.0
PaZnPt2,0.0
PaZnRu2,0.0
Pb4SO8,0.0
Pb3NO6,0.0
Pb2IO2,0.0
Pb2ClO2,0.0
Pb2Au,0.0
PaSiTc2,0.0
PaNi,0.0
PaN,0.0
PaMn2Al,0.0
PaIr3,0.0
PaInTc2,0.0
PaNi2Ge,0.0
PaInRu2,0.0
PaInNi2,0.0
PaInCu2,0.0
PaInAu2,0.0
PaIn3,0.0
PaI3,0.0
PaInPt2,0.0
Pb5(CO4)3,0.0
PaNi2Sb,0.0
PaSe3,0.0
PaSb3,0.0
PaSb2,0.0
PaS3,0.0
PaRh3,0.0
PaPt5,0.0
PaPt3,0.0
PaPbAu2,0.0
PaP3,0.0
PaP2,0.0
PaO3,0.0
PaO2,0.0
PaPd3,0.0
PaHgTe2,0.0
Pb5F8,0.0
Pb6CNO11,0.0
Pd3W,0.0
Pd4S,0.0
Pd4W,0.0
Pd5Pb3,0.0
Pd7O8,0.0
Pd7Se4,0.0
PdAu,0.0
PdAu3,0.0
PdAuO2,0.0
PdPt3,0.0
PdPt,0.0
PdPb4Au,0.0
PdPb2,0.0
Pd3Rh,0.0
PdPb,0.0
PdO,0.0
PdN2,0.0
PdF3,0.0
PdF2,0.0
PdO2,0.0
Pd3Pb,0.0
Pd3Au,0.0
Pd34Se11,0.0
PbO,0.0
PbS,0.0
PbAu3,0.0
Pb8Cl4O7,0.0
Pb5W3O9F10,0.0
Pd3(PbSe)2,0.0
Pd3(PbS)2,0.0
Pd2PbO4,0.0
Pd2O,0.0
PbSe2,0.0
Pd17Se15,0.0
Pd13Pb9,0.0
Pd(NO4)2,0.0
Pd(AuF4)2,0.0
PaHgO3,0.0
PaH3,0.0
P2W7O25,0.0
P2W9O31,0.0
P3(PbO3)4,0.0
P3Au2,0.0
P3Pb5O12,0.0
P3Pb5O13,0.0
P3Rh,0.0
P3Rh4,0.0
P3RuO9,0.0
PPd6,0.0
PPd4,0.0
PPd3,0.0
PPbO4,0.0
PPb,0.0
PIr2,0.0
P7Rh12,0.0
P4N7,0.0
P4H35C4(NO)16,0.0
PH3,0.0
P2W,0.0
OsPbO3,0.0
OsF6,0.0
OsF5,0.0
OsClF8,0.0
OsCl2O,0.0
Os,0.0
OsCl4,0.0
PRh2,0.0
OsRh3,0.0
OsRu3,0.0
P2Pt5,0.0
P2H4RhO9,0.0
P(W3O10)4,0.0
OsRu,0.0
P(W3O10)2,0.0
OsS2,0.0
P(W2O7)2,0.0
PRu,0.0
PW,0.0
PaC,0.0
PaBiAu2,0.0
PaBi3,0.0
PaBe13,0.0
PaC2,0.0
PaAu3,0.0
PaAlV2,0.0
PaAlTc2,0.0
PaAlCu2,0.0
PaAs2,0.0
PaAlAu2,0.0
PaCd,0.0
PaGe3,0.0
PaGaTc2,0.0
PaGaPt2,0.0
PaGaNi2,0.0
PaGaCu2,0.0
PaGaAu2,0.0
PaFe3,0.0
PaCo3,0.0
PaAl3,0.0
PaAgTe2,0.0
Pa3Al,0.0
Pa2SbTe,0.0
Pa2S3,0.0
Pa2BiTe,0.0
Pa,0.0
PW5O17,0.0
PW3O11,0.0
PWO5,0.0
Pa3As4,0.0
PaAgAu2,0.0
Pa3Zn,0.0
Pa3Te,0.0
Pa3Cd,0.0
Pa3Si,0.0
Pa3Re,0.0
Pa3P4,0.0
Pa3Nb,0.0
Pa3Hg,0.0
Pa3Sb4,0.0
PrGe3,0.0
PrGe3Rh,0.0
PrGe5,0.0
Pr25(B7C13)2,0.0
Pr25Ni49P33,0.0
Pr27Se40,0.0
Pr2AgHg,0.0
Pr2AgIr,0.0
Pr2Al,0.0
Pr2Al19Co6,0.0
Pr2Al2Co15,0.0
Pr2Al2CuNi,0.0
Pr2Al2Fe15,0.0
Pr2Al3Ag,0.0
Pr2Al3Co14,0.0
Pr2Al3Ge,0.0
Pr2Al7Cu,0.0
Pr2C3,0.0
Pr2BiO2,0.0
Pr2Bi,0.0
Pr2B5,0.0
Pr23Mg4Rh7,0.0
Pr2Au,0.0
Pr2AlSi,0.0
Pr2AlNi2,0.0
Pr2AlGe6,0.0
Pr2AlFe16,0.0
Pr2AlCo2,0.0
Pr2AlZn,0.0
Pr23Mg4Pt7,0.0
Pr23Mg4Ni7,0.0
Pr23Cd4Ru7,0.0
Pr2(Al3Ir)3,0.0
Pr15Si10Ni7,0.0
Pr14Si11Ni6,0.0
Pr14C14Cl9,0.0
Pr14Ag51,0.0
Pr12Si5Se28,0.0
Pr12Ni6Pb,0.0
Pr12InPt7,0.0
Pr12InCo6,0.0
Pr13Zn58,0.0
Pr2CBr,0.0
Pr2(CoNi)5,0.0
Pr23Cd4Pt7,0.0
Pr23Cd4Ir7,0.0
Pr2(ZnGe2)3,0.0
Pr2(CoCu)5,0.0
Pr2(Zn2Ge)3,0.0
Pr2(ReB2)3,0.0
Pr2(InCu3)3,0.0
Pr2(CuSn2)3,0.0
Pr2(CuGe)3,0.0
Pr2(TlIn)3,0.0
Pr12C6I17,0.0
Pr2CdCu2,0.0
Pr2Fe12P7,0.0
Pr2Fe14C,0.0
Pr2Fe17,0.0
Pr2Fe17C3,0.0
Pr2Fe17N3,0.0
Pr2Fe2S2O3,0.0
Pr2Fe2Si2C,0.0
Pr2FeGe4,0.0
Pr2FeSi2Ru,0.0
Pr2FeSi3,0.0
Pr2Ge5Ir3,0.0
Pr2Ge2Ru,0.0
Pr2GaNi2,0.0
Pr2Ga5Cu3,0.0
Pr2Ga2Co15,0.0
Pr2Ga12Pd,0.0
Pr2FeSn4,0.0
Pr2CuO4,0.0
Pr2Co3Ge5,0.0
Pr2Co2SiC,0.0
Pr2Co2I,0.0
Pr2CdRh2,0.0
Pr2CdPb,0.0
Pr2CdNi2,0.0
Pr2CdHg,0.0
Pr2CdSn,0.0
Pr2CdAu2,0.0
Pr2Co5B2,0.0
Pr2CuIr,0.0
Pr2CuAg,0.0
Pr2Cu4Sn5,0.0
Pr2Cu2O5,0.0
Pr2CrS4,0.0
Pr2Cr3Co14,0.0
Pr2CoSi3,0.0
Pr2CoO4,0.0
Pr2CoGe3,0.0
Pr12(ReC3)5,0.0
Pr12(MnC3)5,0.0
Pr(BC)2,0.0
Pr(BIr)4,0.0
Pr(BO2)5,0.0
Pr(BOs)2,0.0
Pr(BOs)4,0.0
Pr(BRh)4,0.0
Pr(BRu)2,0.0
Pr(Cd10Ni)2,0.0
Pr(ClO)3,0.0
Pr(Co2B)6,0.0
Pr(Co5Mo)2,0.0
Pr(CoAs)2,0.0
Pr(CoB)2,0.0
Pr(FeB)4,0.0
Pr(FeAs3)4,0.0
Pr(CuSn)2,0.0
Pr(CuSi)2,0.0
Pr(CuGe)2,0.0
Pr(Cu2P)2,0.0
Pr(CoSi)2,0.0
Pr(CoP)2,0.0
Pr(CoO3)2,0.0
Pr(CoGe)2,0.0
Pr(CoB)4,0.0
Pr(CrB3)2,0.0
Pr(AsRh)2,0.0
Pr(AsPd)2,0.0
Pr,0.0
PmZr,0.0
PmZnRh2,0.0
PmZnHg2,0.0
PmZnCu2,0.0
PmZnAu2,0.0
Pr(FeGe)2,0.0
Pr(AgGe)2,0.0
Pr(Al10V)2,0.0
Pr(AlSi)2,0.0
Pr(AlGe)2,0.0
Pr(AlGa)2,0.0
Pr(AlAu)2,0.0
Pr(Al10Cr)2,0.0
Pr(Al5Ru)2,0.0
Pr(Al4Fe)2,0.0
Pr(Al2Fe)4,0.0
Pr(Al5Os)2,0.0
Pr(FeO3)2,0.0
Pr(FeP3)4,0.0
Pr(FeSb3)4,0.0
Pr(SiNi)2,0.0
Pr(SiAg)2,0.0
Pr(SiOs)2,0.0
Pr(PRu)2,0.0
Pr(PPt)2,0.0
Pr(P3Ru)4,0.0
Pr(PdO2)2,0.0
Pr(NiSn)2,0.0
Pr(SiPd)2,0.0
Pr11O20,0.0
Pr11In9Ni4,0.0
Pr11Hg45,0.0
Pr(SiPt)2,0.0
Pr10Ti9GaO34,0.0
Pr10(B3C4)3,0.0
Pr(ZnGa)2,0.0
Pr(Sn2Rh)2,0.0
Pr(SiRu)2,0.0
Pr2Ge5Ru3,0.0
Pr(NiSb)2,0.0
Pr(NiP)2,0.0
Pr(In2Pd)2,0.0
Pr(In2Au)2,0.0
Pr(GeRu)2,0.0
Pr(GePt)2,0.0
Pr(GePd)2,0.0
Pr(GeIr)2,0.0
Pr(Ge2Rh3)2,0.0
Pr(Ga4Fe)2,0.0
Pr(Ga4Co)2,0.0
Pr(FeSb3)5,0.0
Pr(Ni2Sn)2,0.0
Pr(Ni2B)6,0.0
Pr(MoO2)6,0.0
Pr(Mo3S4)2,0.0
Pr(MnSn)6,0.0
Pr(MnSi)2,0.0
Pr(MnGe)2,0.0
Pr(MnCo2)4,0.0
Pr(MnAl2)4,0.0
PmZnAg2,0.0
Pr2Ge6Au,0.0
Pr2HgPb,0.0
Pr3Ge13Pt4,0.0
Pr3Ge13Ru4,0.0
Pr3HfSb5,0.0
Pr3Hg,0.0
Pr3InN,0.0
Pr3InO,0.0
Pr3IrBr3,0.0
Pr3IrI3,0.0
Pr3IrO7,0.0
Pr3Lu,0.0
Pr3Ni3Bi4,0.0
Pr3Ni13B2,0.0
Pr3Ni,0.0
Pr3Nd,0.0
Pr3NbSb5,0.0
Pr3Mn4PbO12,0.0
Pr3Mn2Sb3O14,0.0
Pr3MgNi14,0.0
Pr3Mg,0.0
Pr3MnBi5,0.0
Pr3Ge13Ir4,0.0
Pr3GaFeS7,0.0
Pr3GaCo3,0.0
Pr3CBr3,0.0
Pr3Bi4Pt3,0.0
Pr3Bi(Ru2O7)2,0.0
Pr3BBr3,0.0
Pr3Au,0.0
Pr3Cd,0.0
Pr3AsBr3,0.0
Pr3AlN,0.0
Pr3AlFeS7,0.0
Pr3AlCoS7,0.0
Pr3AlC,0.0
Pr3Al11,0.0
Pr3AlNiS7,0.0
Pr3Co,0.0
Pr3Ga10Ni,0.0
Pr3Ga,0.0
Pr3Eu,0.0
Pr3ErMn6(FeCo13)2,0.0
Pr3Er,0.0
Pr3Co11B4,0.0
Pr3Dy,0.0
Pr3CoGe2,0.0
Pr3CoBr3,0.0
Pr3Co4Sn13,0.0
Pr3DyFe34,0.0
Pr3Al,0.0
Pr3OsBr3,0.0
Pr3Th,0.0
Pr3Tm,0.0
Pr3Tm3Mn23,0.0
Pr3Y,0.0
Pr3Zn,0.0
Pr3Zn11,0.0
Pr3Zr,0.0
Pr4(BRh4)3,0.0
Pr4(CoB2)3,0.0
Pr4CoI5,0.0
Pr4CdPt,0.0
Pr4C2Cl5,0.0
Pr4C2Br5,0.0
Pr4Bi3,0.0
Pr3Ta(ClO2)3,0.0
Pr4As3,0.0
Pr4(YS2)11,0.0
Pr4(LuS2)11,0.0
Pr4(HoS2)11,0.0
Pr4(FeB2)3,0.0
Pr4(ErS2)11,0.0
Pr3Sn5Au6,0.0
Pr3RuCl3,0.0
Pr3Ru,0.0
Pr3RhBr3,0.0
Pr3Rh4Pb13,0.0
Pr3Rh2,0.0
Pr3Pt2,0.0
Pr3Pd4,0.0
Pr3PtI3,0.0
Pr3Os,0.0
Pr3Sn13Ru4,0.0
Pr3Sm,0.0
Pr3Sb4Pt3,0.0
Pr3Si3Ni,0.0
Pr3Si11Pt23,0.0
Pr3Si,0.0
Pr3Se4,0.0
Pr3Ag,0.0
Pr2Mn3CoGe4,0.0
Pr2Mn3Cu9As7,0.0
Pr2Mn3Cu9P7,0.0
Pr2Mn4Co13,0.0
Pr2MnSn4,0.0
Pr2Mo2C3,0.0
Pr2MoC2,0.0
Pr2Nd2Sb3,0.0
Pr2Ni12As7,0.0
Pr2Ni12P5,0.0
Pr2Ni12P7,0.0
Pr2Ni22C3,0.0
Pr2Ni2I,0.0
Pr2Ni2Sn,0.0
Pr2Ni3P4,0.0
Pr2Re2Si2C,0.0
Pr2Pd2Pb,0.0
Pr2P3Au,0.0
Pr2NiO4,0.0
Pr2NiGe3,0.0
Pr2NiB10,0.0
Pr2Ni7P4,0.0
Pr2Ni7,0.0
Pr2Ni5B4,0.0
Pr2NiGe6,0.0
Pr2MgTl,0.0
Pr2InPd2,0.0
Pr2InGe2,0.0
Pr2InAu2,0.0
Pr2Ir2O7,0.0
Pr2In3Ni,0.0
Pr2In,0.0
Pr2Ho,0.0
Pr2In8Pd,0.0
Pr2IrAu,0.0
Pr2MgS4,0.0
Pr2MgPd2,0.0
Pr2MgNi2,0.0
Pr2MgIrO6,0.0
Pr2IrPd,0.0
Pr2MgIn,0.0
Pr2MgCu2,0.0
Pr2MgCd,0.0
Pr2MgAl,0.0
Pr2Mg,0.0
Pr2MgGe2,0.0
Pr2Ru2O7,0.0
Pr2RuO5,0.0
Pr2Sb,0.0
Pr3(GaNi)2,0.0
Pr3(Co2Sn)4,0.0
Pr3(Al7Cu2)4,0.0
Pr3(Al3Ru)4,0.0
Pr3(GaNi2)2,0.0
Pr3(Al3Os)4,0.0
Pr3(AgSn)4,0.0
Pr2ZnRu,0.0
Pr2ZnHg,0.0
Pr2ZnGa,0.0
Pr3(Al2Si3)2,0.0
Pr2ZnBi4,0.0
Pr3(GaNi3)2,0.0
Pr3(GeRh)2,0.0
Pr32In3Rh19,0.0
Pr3(ZnAs3)2,0.0
Pr3(SiNi3)2,0.0
Pr3(Ge3Pt2)2,0.0
Pr3(SiC)2,0.0
Pr3(ReO5)2,0.0
Pr3(P3Pd10)2,0.0
Pr3(NiGe)4,0.0
Pr3(GeRu)2,0.0
Pr3(Si3Pd10)2,0.0
Pr2GeRh3,0.0
Pr2Zn5Sn,0.0
Pr2Sn5,0.0
Pr2Sn3,0.0
Pr2SmS4,0.0
Pr2SnHg,0.0
Pr2Si3Ni,0.0
Pr2ScSi2,0.0
Pr2SbO2,0.0
Pr2Sb4Ir3,0.0
Pr2Si3,0.0
Pr2ZnAg,0.0
Pr2SnS5,0.0
Pr2Tl,0.0
Pr2Zn5Pb,0.0
Pr2Zn17,0.0
Pr2Y,0.0
Pr2WC2,0.0
Pr2UTe5,0.0
Pr2Te5,0.0
Pr2UTe4,0.0
Pr2UP3,0.0
Pr2TlCd,0.0
Pr2TlAg,0.0
Pr2USe4,0.0
PmZn3,0.0
PmZn2Cd,0.0
PrPt5,0.0
PrRe2SiC,0.0
PrRh2,0.0
PrRh3C,0.0
PrRu2,0.0
PrRuO3,0.0
PrS,0.0
PrSb,0.0
PrSb2,0.0
PrSb3,0.0
PrSbIr,0.0
PrSbPd,0.0
PrSi2Ir3,0.0
PrSi2,0.0
PrSi,0.0
PrSe2,0.0
PrSbSe,0.0
PrSe,0.0
PrPt2,0.0
PrO2,0.0
PrO,0.0
PrNiSnH2,0.0
PrNiSnH,0.0
PrNiSn,0.0
PrOs2,0.0
PrNiSb2,0.0
PrNiSb,0.0
PrNiP,0.0
PrNiSb3,0.0
PrSi2Mo2C,0.0
PrPd5,0.0
PrPd3S4,0.0
PrPd3,0.0
PrPbAu2,0.0
PrP,0.0
PrPbAu,0.0
PrPb2,0.0
PrPPd,0.0
PrPOs2C,0.0
PrPIr,0.0
PrP5,0.0
PrPb3,0.0
PrSi2Ni,0.0
PrSi2Rh,0.0
PrSnAu2,0.0
PrSnPd,0.0
PrSnPt,0.0
PrSnRu,0.0
PrTh,0.0
PrThCN,0.0
PrThN2,0.0
PrThUS5,0.0
PrTm3,0.0
PrTlAg2,0.0
PrTl3,0.0
PrSnAu,0.0
PrTl,0.0
PrTiGe3,0.0
PrTiGe,0.0
PrTi2ZnO6,0.0
PrSn3,0.0
PrSiRu,0.0
PrSiPt,0.0
PrSiPd,0.0
PrSiOs2C,0.0
PrSiNi,0.0
PrSiI,0.0
PrSiAs3,0.0
PrSiAg,0.0
PrSi2Ru,0.0
PrSiIr,0.0
PrSi2Ni9,0.0
PrSm,0.0
PrSm3,0.0
PrSn2,0.0
PrSmZn2,0.0
PrSmO2,0.0
PrSmMg2,0.0
PrSmIn2,0.0
PrSmFe4,0.0
PrSmCo17,0.0
PrSm3S4,0.0
PrSmIr2,0.0
PrIn5Ir,0.0
PrIn5Rh,0.0
PrInAg2,0.0
PrInAu,0.0
PrInCu,0.0
PrInCu2,0.0
PrInCu5,0.0
PrInNi,0.0
PrInNi2,0.0
PrInPd2,0.0
PrInPt,0.0
PrInPt4,0.0
PrMg2,0.0
PrMg12,0.0
PrMg(ReO4)2,0.0
PrMg(NiO3)2,0.0
PrMg(FeO3)2,0.0
PrMg(CuO3)2,0.0
PrIn5Co,0.0
PrMg(AgO3)2,0.0
PrMg,0.0
PrLuMg2,0.0
PrLuIn2,0.0
PrIr2,0.0
PrMg(BiO3)2,0.0
PrIn4Ni,0.0
PrIn3Pt,0.0
PrIn3,0.0
PrHg3,0.0
PrHg,0.0
PrHfO4,0.0
PrHfO3,0.0
PrH,0.0
PrHgPd,0.0
PrGeRu,0.0
PrGePt,0.0
PrGeIr,0.0
PrGeAu,0.0
PrGeRh,0.0
PrHo3,0.0
PrIn2Rh,0.0
PrIn2Pd,0.0
PrIn2Ni9,0.0
PrIn2Ni,0.0
PrIn2Ir,0.0
PrIn,0.0
PrHoZn2,0.0
PrHoTl2,0.0
PrHoAl4,0.0
PrI2,0.0
PrMg2Cu9,0.0
PrMg3,0.0
PrNdMg2,0.0
PrNdIr2,0.0
PrNdIn2,0.0
PrNdHg2,0.0
PrNdCo14B,0.0
PrNdCo10,0.0
PrNdSb2,0.0
PrNiB4,0.0
PrNiAs,0.0
PrNi9Ge4,0.0
PrNi5Sn,0.0
PrNi5,0.0
PrNi4B,0.0
PrNi2,0.0
PrNi,0.0
PrNdZn2,0.0
PrNdTl2,0.0
PrNdSb4,0.0
PrMnNi4,0.0
PrMgRh,0.0
PrMgPd,0.0
PrMgNi4,0.0
PrMgMn2O6,0.0
PrMgIn,0.0
PrMgSi2,0.0
PrMgHg2,0.0
PrMgCd2,0.0
PrMgAu2,0.0
PrMgAl7Fe2,0.0
PrMgAg,0.0
PrMgGa,0.0
PrMgSn,0.0
PrMnGe,0.0
PrMnCu10,0.0
PrMnB4,0.0
PrMn7O12,0.0
PrMn5Co7,0.0
PrMn2ZnO6,0.0
PrMn2SiGe,0.0
PrMgTl,0.0
PrU2S5,0.0
PrUN2,0.0
PuBr3,0.0
PuC2,0.0
PuClO,0.0
PuCoC2,0.0
PuCu2,0.0
PuCu6,0.0
PuF4,0.0
PuH2,0.0
PuH18C3S3(O2F)9,0.0
PuGe3,0.0
PuGe2,0.0
PuGaNi,0.0
PuBi,0.0
PuGa6,0.0
PuGa4,0.0
PuGa3,0.0
PuGa2,0.0
PuGa,0.0
PuGa5Co,0.0
PuAs3,0.0
PuAs,0.0
PuAl4,0.0
PuAl3Pd2,0.0
PuAl2,0.0
PuAg3,0.0
Pu5Rh3,0.0
Pu5Pt3,0.0
Pu5Ir3,0.0
PuH3,0.0
PuB12,0.0
PuB2C,0.0
PuB6,0.0
PuB4W,0.0
PuB4Ru,0.0
PuB2,0.0
PuB4Mo,0.0
PuB4,0.0
PuB2Ru3,0.0
PuB2Ru,0.0
PuB2Os,0.0
PuB2Ir3,0.0
PuB4ClO8,0.0
PuH8(SO6)2,0.0
PuHf3,0.0
PuHg3,0.0
PmTm3,0.0
PmTm,0.0
PmTlRh2,0.0
PmTlAu2,0.0
PmSnRh2,0.0
PmSnPd2,0.0
PmSnAu2,0.0
PmTmMg2,0.0
PmTmTl2,0.0
PmZn2Au,0.0
PmZn2Ag,0.0
PmYZn2,0.0
PmYRh2,0.0
PmYMg2,0.0
PmTmRu2,0.0
PmYAl2,0.0
PmY3,0.0
PmTmZn2,0.0
PmYIn2,0.0
Pu4Sb3,0.0
PmSn3,0.0
PmSmTl2,0.0
PuNi,0.0
PuN2O11,0.0
PuMoC2,0.0
PuMg3,0.0
PuMg,0.0
PuIr2,0.0
PuInAu2,0.0
PuIn3,0.0
PuI3,0.0
PuI2,0.0
PuInHg2,0.0
PuNi4,0.0
PuNiC2,0.0
PmSmRu2,0.0
PmSmRh2,0.0
PmSmMg2,0.0
PmSmIr2,0.0
PmSmHg2,0.0
PuNi5,0.0
PuP,0.0
PuOF,0.0
PuO2,0.0
PuO,0.0
PuNpB4,0.0
Pr4CuS7,0.0
Pu3Th,0.0
PrZnGe,0.0
PrZnNi,0.0
PrZnRh,0.0
Pt3(RhSe5)2,0.0
Pt3O4,0.0
Pt3Pb,0.0
PtPb,0.0
PtO3,0.0
PtO2,0.0
PtO,0.0
PtF6,0.0
Pt4(O3F8)3,0.0
Pt3W,0.0
PtF5,0.0
PrZn5,0.0
PrZn2,0.0
PrYAl6,0.0
PrYAl4,0.0
PrY3,0.0
PrYMg2,0.0
PrY(Co3Ni2)2,0.0
PrVSb3,0.0
PrVGe3,0.0
PrUP2,0.0
PrYMg6,0.0
PrZn11,0.0
PrZn(SnO3)2,0.0
PrZn(NiO3)2,0.0
PrZn(FeO3)2,0.0
PrZn(CuO3)2,0.0
PrZn(CoO3)2,0.0
PrYZn2,0.0
PrYTl2,0.0
PrYNi4,0.0
PrZn(AgO3)2,0.0
PtRh,0.0
Pu2Si4Tc3,0.0
Pu2SO2,0.0
Pu2S3,0.0
Pu2SnHg,0.0
Pu2Pt,0.0
Pu2O3,0.0
Pu2Ni2Sn,0.0
Pu2Re3Si5,0.0
Pu2Ni17,0.0
Pu2SnPt2,0.0
Pu2Te3,0.0
Pu3Sn,0.0
Pu3Si2,0.0
Pu3Se4,0.0
Pu3Sc,0.0
Pu3Pd4,0.0
Pu3O2,0.0
Pu31Pt20,0.0
Pu2Zn17,0.0
Pu2W2C3,0.0
Pu2US5,0.0
Pu2TeO2,0.0
Pu3Ge,0.0
Pu3Zn22,0.0
Pu2InPd2,0.0
Pu(SO6)2,0.0
Pu(Mo3Se4)2,0.0
Pu(Mg4Al3)4,0.0
Pu(BIr)4,0.0
Pu(SeO3)2,0.0
Pu(AlGa)2,0.0
PtXeF11,0.0
PtRh3,0.0
Pu2InPt2,0.0
Pu(SiIr)2,0.0
Pu2HgGe,0.0
Pu2HgBi,0.0
Pu2C3,0.0
Pu2BiAu,0.0
Pu(SiNi)2,0.0
Pu2B6Ru,0.0
Pu13Zn58,0.0
Pu(SiRu)2,0.0
Pu(SiRh)2,0.0
Pu(SiPt)2,0.0
Pu(SiPd)2,0.0
Tb2Nb2O7,0.0
SmAlAu,0.0
SmAlCu,0.0
SrEu4Se5,0.0
SrEuAlO4,0.0
SrEuBiSbO6,0.0
SrEuC4,0.0
SrEuCoO4,0.0
SrEuCoWO6,0.0
SrEuCrSbO6,0.0
SrEuCrSnO6,0.0
SrEuFeSbO6,0.0
SrEuFeSnO6,0.0
SrEuHfCrO6,0.0
SrEuHfMnO6,0.0
SrEuHfNbO6,0.0
SrEuPt2,0.0
SrEuNiO4,0.0
SrEuNbWO6,0.0
SrEu4O5,0.0
SrEuNbFeO6,0.0
SrEuMgBiO6,0.0
SrEuInWO6,0.0
SrEuInSbO6,0.0
SrEuIn2,0.0
SrEuHg2,0.0
SrEu3,0.0
SrCuO3,0.0
SrCuO2,0.0
SrCuGe,0.0
SrCuBi,0.0
SrCuAs2O7,0.0
SrCu9Si4,0.0
SrCu9Ge4,0.0
SrCu5,0.0
SrCu4Ag,0.0
SrCu3(RuO3)4,0.0
SrCu9Sn4,0.0
SrEuS2,0.0
SrCuP2O7,0.0
SrEu(WO3)4,0.0
SrCuP,0.0
SrEu(PPt)2,0.0
SrEu,0.0
SrDy2CuO5,0.0
SrCuSn2,0.0
SrCuSi,0.0
SrCuSb,0.0
SrEu(CoO3)2,0.0
SrEuScO4,0.0
SrGd2Co2O7,0.0
SrGdCoO4,0.0
SrGdZrTiO6,0.0
SrGe,0.0
SrGe3,0.0
SrGe3Ir,0.0
SrGe3Pd,0.0
SrGe3Pt,0.0
SrGeAu3,0.0
SrGeO3,0.0
SrH3Pd,0.0
SrH4Ir(OF3)2,0.0
SrHg3,0.0
SrHg2,0.0
SrHfMg6,0.0
SrGaSi,0.0
SrGaH4,0.0
SrFe(PO4)2,0.0
SrF3,0.0
SrEuZrVO6,0.0
SrEuZrFeO6,0.0
SrFe2AsP,0.0
SrEuYWO6,0.0
SrEuTl2,0.0
SrEuTiNbO6,0.0
SrEuTi4O12,0.0
SrEuSi4,0.0
SrGaGe,0.0
SrGa4Au3,0.0
SrGa4,0.0
SrGa2,0.0
SrFeSnWO6,0.0
SrFeO3,0.0
SrFeO2,0.0
SrFe5Bi4O15,0.0
SrGa,0.0
SrCu2(PO4)2,0.0
SrCaEuSbO6,0.0
SrCaFeSnO6,0.0
SrCaGaBiO6,0.0
SrCaHfCoO6,0.0
SrCaHfFeO6,0.0
SrCaHfWO6,0.0
SrCaHg2,0.0
SrCaIn2,0.0
SrCaMg14,0.0
SrCaSi4,0.0
SrCaNiBiO6,0.0
SrCaNdMnO6,0.0
SrCaNbVO6,0.0
SrCaEu2,0.0