formula,band_gap
Li8Cr3TeO12,0.8811
Li3V5P7O29,0.8812
Na9Mg11Nb(SO4)18,0.8818000000000001
TiGePt,0.8822000000000001
Rb(SnSe2)2,0.8822000000000001
Na2PdC2,0.8829
MgCoAsO5,0.8832
MgV2(HgO3)2,0.8832
Sr(InTe2)2,0.8837999999999999
Li6Mn3Fe(PO4)6,0.8845999999999998
Li4Ti4V5O18,0.8845999999999998
ScIn3P4,0.8854999999999995
WI3O,0.8858000000000001
ZnCo5O7,0.8860000000000001
SrLa3Mn4O10,0.8863000000000003
Rb2MgMo2P2(ClO5)2,0.8864000000000001
Si19Te8,0.8865999999999996
Li3TiV3O8,0.8866
NaBeSb,0.8866
Tm4CdSe7,0.8872
Re3PbSe6,0.8872
SrLi4N2,0.8873999999999999
Na4CoAuO5,0.8874
Zn3Si4(MoO7)2,0.8881999999999999
Sr2MgMnO4,0.8882999999999992
Na6Mg(NiO3)2,0.8883000000000001
MgZn2Cr2O8,0.8887
Na11(WO3)13,0.8887999999999994
MgMnVP2(HO5)2,0.8887999999999998
Rb2PdSe2,0.889
Na3CuCSO7,0.8895
Mg14NiBiO16,0.8895000000000008
Li7V8(PO4)12,0.8895999999999997
Pb2OF2,0.8897999999999997
Sr3P4,0.8898000000000001
Na14Mn2O9,0.8901999999999999
NaCo2BiO6,0.8902000000000001
P2Os,0.8902999999999999
PuCoH24C4N6O13,0.8905000000000001
MgCu2B2H8(ClO4)2,0.8907000000000003
LiFe7(O3F5)2,0.8907999999999998
VCu3(SeS)2,0.891
TlHg3As2Cl3,0.8915999999999997
Na3TiF8,0.8920000000000001
Na2Bi5AuO11,0.8920000000000003
Pb(SeO3)2,0.8921999999999999
V2P3O10,0.8922000000000003
Na14Co2O9,0.8922999999999999
RbMo2(PO4)3,0.8925999999999998
LuMgCrS4,0.8926000000000003
LiVSO4F3,0.893
ZrTl2S3,0.8937000000000008
Li4Ni3Sb(PO4)4,0.8942000000000005
LiV2CoO6,0.8946000000000001
NO2,0.8947
PrMgV2O6,0.8948999999999998
NiF4,0.8967
Sr3UFe2O9,0.8969
LiSi4NiO10,0.8973000000000001
Rb2TiSi3O10,0.8978999999999999
ZnIn3AsSe4,0.8979999999999997
Na4MgMn2O6,0.8980999999999999
Si3H,0.8982000000000001
Na4Mg(FeO3)2,0.8984000000000001
NaVZnP2O9,0.8985999999999998
RbO3,0.8986
Li4V3Sn3(TeO8)2,0.8990999999999998
Mn6Te5O16,0.8991999999999996
TbAgTe2,0.8994
Mn2V2PbO10,0.8996999999999999
Sr18Ni13O42,0.8999999999999999
Li4TiCrO6,0.9001000000000001
SrLa9Mg2Ga6(FeO14)2,0.9001999999999999
Rb2CuSbCl6,0.9004999999999996
Li4V2Fe5O12,0.9009
Rb2Cu2SnS4,0.9012999999999995
Li3Ti2Mn3O10,0.9013
Rb2LiSn4,0.9014000000000002
NaCu3O2,0.9015999999999996
LiV8F33,0.9017
Li3V3Cr2O10,0.9019
SrCd4S5,0.9023
Na10Ca3Si6Sn5(SO8)6,0.9023000000000004
BeGeP2,0.9023000000000004
Zr6GeI14,0.9028
Li4V7O9F7,0.9028999999999998
Sr2DyUO6,0.9030000000000004
V3Cr3(SbO8)2,0.9032
TlAg3S2,0.9032999999999998
Na10Mg3Si6Ge5(SO8)6,0.9034
MgWOF4,0.9038
MnZn(GaSe2)4,0.9038000000000002
Dy2Mn2O7,0.9041
Na14Ca4Si7Ge4S5O48,0.9042000000000004
TiZn(BiO3)2,0.9043
HfPbN2,0.9043
Zn4CdSe5,0.9044
LiCr(PO4)2,0.905
InGa2N3,0.9052000000000008
Rb2CoAuF6,0.9054
LuMg2Cr3S8,0.9055
LiMo2PO8,0.9058
W3(SeS2)2,0.906
Li5Mn2Fe17O32,0.9063
LiGdCl4,0.9065
MoBr3O,0.9067
Sm(Tl3Te2)3,0.9070999999999998
Li4V5Co3O16,0.9074
ZnCoF5,0.9076
SeI2,0.9079000000000002
Sc(CuSe)3,0.9079000000000006
MoSI,0.9080000000000004
Gd5AgSe8,0.9084000000000004
Li5CrS4,0.9084999999999996
Li2CuAsO4,0.9085
Hf(Te4Cl3)2,0.9085
K2Na2H16XeO14,0.9085
LuTa6Br13O3,0.909
Sr2HoUO6,0.9093
SrLaMnMoO6,0.9097
Li5Si2NiO8,0.9101
LiCr4(PO4)3,0.9102000000000006
Li2VSi4O11,0.9103
Rb3AsSe16,0.9103
BaNb6Bi6Pb2O27,0.9104
Rb4MgH12(SeO3)8,0.9106
Na2CuSbCl6,0.9107999999999996
MnBPbO4,0.9108999999999998
Rb2TeSe4,0.9114999999999998
Rb3Ge4Au,0.9115
Li5Ni6(P2O7)4,0.9115000000000002
MnMoO4,0.9120000000000004
Li8Mn2O7,0.9122
Ca2Nb2CoO9,0.9125
Li8Mn3CrO12,0.9127999999999998
SnSeS,0.9128000000000004
RbNb2PSe10,0.9129999999999998
NaAuSe2,0.9131
Li8Ti6Mn7O30,0.9131
Rb16Sn16F47,0.9131999999999998
Li4V2Cr3Sn3O16,0.9131999999999998
RbCuO2,0.9136
MgMnTe2,0.9141
Re3Br8Cl,0.9143
Cs3Sb5O14,0.9143
Sr2ErUO6,0.9143999999999995
K10NbInAs6,0.9145
AsRuS,0.9146
MnP6(WO8)3,0.9146999999999998
Rb2TlAsI6,0.9147999999999998
NaBeH3,0.9148
PaAgO3,0.915
Zn11Fe25O48,0.9151999999999996
TlBSe3,0.9154
RbAcTe2,0.9157000000000002
NdSeF,0.9158
RbTiPS5,0.9166
Ga2HgSe4,0.9168
TlCu(PO3)3,0.9173
Sr3(SiAs2)2,0.9176000000000002
U2CuP2(HO)24,0.9177
Na2CaGeP2SO12,0.9177
NaSnN,0.9178999999999996
Li4Ti3Cr3(NiO8)2,0.9183
Li2AlNiO4,0.9184
Pd(IO3)2,0.9186
Li4FeO3F,0.9188
Li4Cr2P4H3O16,0.9188
Rb4TlSbCl12,0.919
Li3V4O5F7,0.919
MnSn4H24C8(Se5N)2,0.9195
Li6V3Ni(PO4)6,0.9196
Li3VCr3O8,0.9199
NO3,0.9199000000000002
Na10La4Si7Sn4S5O48,0.9202
Rb2S2NO6,0.9203
Rb3P3O10,0.9204
SrZn2Fe16O27,0.9206
B6Pb,0.9206000000000004
Mg(InN)2,0.9213000000000005
Sr3(GeP2)2,0.9214999999999997
InAgSnS4,0.9214999999999997
Rb6Te2O9,0.9219000000000002
CrPHO5,0.9222
Nb2VZn2O8,0.9223
Mo3(PO4)4,0.9224000000000004
Li2VCoO4,0.9225000000000004
LiCa10MgSb9,0.9226
VCrO5,0.9229
Mo3WSe8,0.923
NaH2SO4,0.9236
Ni(H3Cl)2,0.9238
Zn5TeSe4,0.9239000000000002
Ca3V10O25,0.9242
Sr2Cr2O7,0.9243
Ba6Mg(P2O7)3,0.9244000000000004
RbSe,0.9245
MgHg2(BiO3)2,0.9247
LiEr2Tl2(WO4)4,0.9247999999999998
K2LiCuF6,0.9248
Y5Mg(MoO6)2,0.9251000000000004
Sr7HfN6,0.9251999999999998
LiAl2V4O8,0.9255999999999992
Os(OF)2,0.9257
Bi3BrO4,0.9257999999999996
TiCu2O3,0.9258999999999996
CaAs3F15,0.9261
UAgF6,0.9267
Mn2Sb2H8S5N4,0.9270999999999998
TlPAuSe3,0.9271000000000004
RbTaGeS5,0.9272999999999998
Li3NiO3,0.9276
Si60Te13P32Se3,0.9278000000000004
ScTlO3,0.9279999999999996
Cs3Mo2I9,0.9283
Cs3CoI5,0.9287
MgTiV3O8,0.9287000000000004
Ba2CaCr2F14,0.929
PdI2,0.9294000000000002
MnTe2H20(CN)4,0.9299
Rb2TlSbI6,0.9303
Mn(RhO2)2,0.9305000000000004
YNi(WO4)2,0.9307
NaAg3S2,0.9312
ScNb6Cl13O3,0.9312999999999998
Nb2Tl4Se11,0.9315000000000002
Rb2P2Pt,0.9318
Ba2CuMo2F14,0.9323
MgMn4(CoO6)2,0.9328000000000004
Na6Ca4Nb4Si5S7O48,0.933
Li3Ti2V3O12,0.9330999999999998
LiIn2CuSe4,0.9331
Na18Mg8Nb4Si9(SO8)9,0.9335
Li7PSe6,0.9336
Rb2YCuF6,0.9337999999999996
LiFeBr4,0.9341
Sc2TlCu3Se5,0.9341
ZnAg2GeS4,0.9342
Na3Cu5O4,0.9344
La3ScBeS7,0.9344
Y6Mn(SiS7)2,0.9344
Pr12Ge5S28,0.9347
K3FeO2,0.9347
Ca6Sc(CoO4)3,0.9348
NaMn3P3O13,0.9349999999999998
K4HgP2,0.9356
Na4Al3Si3H3O14,0.9357
Na4Ca3GeP2(SO6)4,0.9358
Na6Mg2Si3Ge2(SO8)3,0.936
Li32Ti3Cr13O48,0.9362
Li8TiMn3(PO4)6,0.9362
Sr2ErMoO6,0.9364999999999996
CoSb3XeF23,0.9365
K8Nd3(Si4O11)3,0.9365
LiNb3InCl9,0.9366
Cs2TlSbI6,0.9367
Li2MnO3,0.9367
RbCoNiF6,0.9368999999999998
Nb2Pb2O7,0.9375999999999998
Mg6AlNiO8,0.9376999999999996
Mg30MnCoO32,0.9380999999999996
Hg2P3Br,0.9381
Te3W2Se4(Cl4O)2,0.9382
Mn7FeCl3O10,0.9382
Ca2YFeO5,0.9384
La6Sm2V5Cr3O24,0.9385000000000004
MgV4(OF)6,0.9393999999999998
Na4Ca2Ta2Si3(SO8)3,0.9394000000000002
Sr7Mn4O13,0.9408
Nd3Se3N,0.9412999999999996
LiTi3MnCr(PO4)6,0.9414000000000002
VCrP2(O4F)2,0.9416
LiVP4O13,0.9416
RbBa4Sb3O,0.9417
Na4SnTe4,0.9417
Tl2SiHgSe4,0.9421
Hf2Nb2Si3(SO8)3,0.9424
CsMn(PO3)4,0.9425
Na3Ca3AlAs4,0.9426
MgV4(WO6)2,0.9428
Li3Mn(Si2O5)3,0.943
Ca2MnAl2Si3HO13,0.9432000000000004
Ca3(GaP2)2,0.9434000000000003
POsS,0.944
Hg6Sb5Br7,0.9446
Ba11W4O23,0.9446
Ca(Fe9O13)2,0.9447
Na2PdS2,0.9448
CsFeBP2HO9,0.945
Mg6MnFeO8,0.9451999999999998
Zn3InGaO6,0.9453
Rb7Th6F32,0.9456
Na5GeP3,0.9459999999999996
Ga(MoS2)3,0.9463999999999996
KZrSnBiO6,0.9464
Nb3Se5Cl7,0.9467
ReI3,0.9469999999999998
Ti6CCl14,0.9476999999999998
NaMn(GeO3)2,0.9476999999999998
Na2SnSe3,0.9476999999999998
Li10Mn(SiO5)2,0.9482
SnHg7(As2I3)2,0.9482
BaMnP(O2F)2,0.9484
Ba2MnTeO6,0.9486
BaMn2Fe4O11,0.9487000000000004
Cs2As2Pd,0.9488
Cs2BrCl6F,0.9489
Li5(CoO3)2,0.9501
MgP3W3O13,0.9504
CdHg2SeO6,0.9506
Ag2PdCl4,0.9506
RbPrTiNbO6F,0.9506
CsSm2CuSe4,0.9508
Na8CoO6,0.9511
NaIn10CuS16,0.9512999999999998
NaSmMnWO6,0.9514000000000004
SrInGaWO6,0.9516999999999998
Na10Mg4Si5Sn4S7O48,0.9520000000000004
Na4Sr2SiP4,0.9527
Na6Ca2Ti6Si5S7O48,0.9530999999999998
Cs2AgMoCl6,0.9531
Tl2SnS3,0.9537
BaCrSnBiO6,0.9540999999999996
CoH12C2(I2N)2,0.9542
Zn4InGaO7,0.9546
Na2V2(PO4)3,0.9549
Ba2MgCr2CuF14,0.955
SmNb6Cl13O3,0.9552000000000002
Rb2SiAs2,0.9554999999999998
RbGd2CuS4,0.9555000000000002
K6PdSe20,0.9558
HfTeSe4,0.9563
TmRhO3,0.9564999999999992
Cs2AlInI6,0.9566
Mg30CrCO32,0.9566999999999996
CaTiCo(PO4)3,0.9571
Sc2CdS4,0.9581
Rb6Fe2O5,0.9581999999999996
Mn5(SiO5)2,0.9584
BaCdAsF,0.9586
CsHo(NbBr3)6,0.9589
Li5NiO3F,0.9598
MgV2(SbO4)2,0.9601000000000006
K2Te2As,0.9604
HoRhO3,0.9605999999999996
Gd2CdSe4,0.9607
CsTb(NbBr3)6,0.9607
Ga2Te5,0.9609
K5SnAs3,0.9611
LaMgMnCrO6,0.9613000000000004
MgScCrS4,0.9616000000000002
Na2MnBSO7,0.9618
Na3GaN2,0.962
Li5V2Ni5O12,0.9627000000000004
ZrSnPt,0.9627999999999995
Na3NO3,0.9628
MgVFe(P2O7)2,0.9629
Na6Mg4Nb8Si9(SO8)9,0.9629
MoH4O5,0.963
MnZnPO5,0.9632999999999998
MnH6(S2O9)2,0.9648
H5IO6,0.965
Ti4(Ni5O8)3,0.9655000000000004
PdSO4,0.9656
Li7Mn4P9O32,0.9658
La6Sm2V3Cr5O24,0.9662999999999996
In2AgS3Br,0.9666
Si5Ir3,0.9666999999999994
ReCl3,0.9668
La7SmV7CrO24,0.9669
Cs(Nb2Cl5)3,0.967
La3CuS3O2,0.9670000000000004
CsCuO2,0.9672
Li4Ti5Mn4O18,0.9673000000000004
PPdSe,0.9677000000000002
Nb3Se5Br7,0.9682
Zn3Cr3(AsO4)4,0.9683000000000002
Ba4LaGe3SbSe13,0.9686
K2Mn2Zn4Si4O15,0.9687
Nb3In2Cl9,0.9687
Fe3C8(Br2N)8,0.9687
Nb3TlCuCl9,0.9688
Nd2Ta3(SeO4)2,0.9692999999999996
MoW11O36,0.9693
V17Pb3O32,0.9697000000000005
SrSnO3,0.9698000000000002
Tb12Ge5S28,0.9700000000000002
V3Bi2(PO4)6,0.9702
NbCoSn,0.9703999999999996
Li4V2F9,0.9706
Cs3Tm11Te18,0.9707000000000005
Na10Mn2O9,0.9708
Y4Mn13Si2(SbO14)2,0.9708
Li3Fe4NiO8,0.9709
Rb2BiAuCl6,0.9711999999999998
MgMo2O5,0.9713000000000004
Na2Mn(PO3)5,0.9716
Rb3GaI6,0.9717
RbCrF3,0.9717000000000002
Li4MnO3,0.9717999999999998
Rb8Zr6BeBr20,0.9719
Rb4Tc6S13,0.9722000000000004
K2CoBr4,0.9723
Tl2Pt5S6,0.9724000000000004
CrSnSbO6,0.9726
Ba2GaSbTe5,0.9728
Dy12Ge5S28,0.9731
MgZn4O5,0.9734
Li6Mn(BO3)3,0.9734
Na17(WO3)19,0.9734000000000004
BaCdO2,0.9747
Li4Mn(OF)2,0.9747000000000005
MgMnV2O6,0.9749999999999996
CsLu(NbBr3)6,0.975
Dy(BrO2)3,0.975
RbCuTeS3,0.9750999999999994
Ba2MgMnO4,0.9752
Cs2RbGaI6,0.9753
Sr2UCrO6,0.9756999999999998
Sr4MgIn2(SbO6)2,0.9758000000000004
Sr(Li2P)2,0.9758999999999998
Na3Co(BO3)2,0.9759000000000002
Pr3Se3N,0.976
MnAs2H16(S2N)4,0.9760000000000002
Sb3AsS6,0.9761999999999996
AuClO,0.9762
Nd4Bi2S9,0.9763000000000002
Nb3Cl7,0.9765
ZrCoBi,0.9771999999999998
Mg2ZnP2,0.9775
CsSnCl3,0.9787
Ag5Hg4P8Cl5,0.9788
Li6Co2OF11,0.9789
Mn(SeO3)2,0.9789
UAgIO6,0.9791999999999996
PdBr2,0.9792
Nb2O5,0.9798
Li9Cr5(SiO8)2,0.9802999999999996
Gd2V2O7,0.9804999999999996
Er2MgCr2O8,0.9809
CaFe2Cu3(SbO6)2,0.981
Sr(MgSb)2,0.9813
K2MgCr2Cd(H2O5)2,0.9815
Nb(SeI)2,0.9815999999999998
Rb2Nb2P2S11,0.9816000000000004
RbDyS2O9,0.9818
SmBiTe3,0.9818000000000008
Mn3H24(O3F2)4,0.9821
Sr3AlAs3,0.9824000000000002
CoH8S2(NO2)4,0.9827
BaErAgS3,0.9827999999999996
Cs3AuF6,0.9832
SrPb3S4,0.9832
PRhO4,0.9836
NbNO,0.9837
Li3N,0.984
Li4MnNb2WO12,0.9842
RbNb3CuCl9,0.9843000000000002
Na3P3O10,0.9844
MgZn2CuWO6,0.9844000000000004
Li4Ti4Mn4CoO18,0.9844999999999996
NaCePCO7,0.9845
Li2CrO2,0.9845999999999996
Cs6ZnGe8,0.9847
VS4,0.9848
SrDyCoO4,0.985
Li5MnO3F2,0.9852
TiFeTe,0.9852000000000009
LiV3O5F,0.9853
Li4Bi2S7,0.9856000000000004
Si3P3Ir,0.9857000000000004
Rb2Pb4O7,0.9863
Sm9Ga5Se21,0.9863
Ba3Bi2I2O5,0.9866
Rb6V6P6O31,0.9866999999999996
ZnMoAsO5,0.9867
Cs2Pd3Se4,0.9867
Dy6Mn(SiS7)2,0.9867
SrLaMnSnO6,0.9869000000000004
Na7Cu3O8,0.9871
Mo2WSe6,0.9875000000000004
Ti5Mn3O16,0.9875000000000004
LiMoP4O13,0.9876
Sb3P3O13,0.9878
Zn3Sn2O7,0.9878999999999998
Na4VO4,0.9879000000000002
Sr3Nb4O13,0.988
MgTi2Mn4O12,0.9882
Sr3(SnP2)2,0.9885000000000002
Ti2AgN3,0.9886999999999996
Li3MnBAsO7,0.9887
Tl2SnSe3,0.9887
Sr3Fe2Br2O5,0.9888
La6Sm2Cr3(FeO4)5,0.9889
Ba3SrEr2(MoO6)2,0.9889
Li3BiS3,0.989
V2NiP2(H4O7)2,0.9891
La4PtO7,0.9892000000000004
MgZn2(MoO3)4,0.9895000000000004
Tl2Hg3Te4,0.9897
K3ClO,0.9897
NaPt2Se3,0.9897
RbRe3Br10,0.9908
TlIn5Se8,0.9908000000000006
NaCrS2,0.9908999999999994
ZrPdF6,0.9909
V2Ag6As2O13,0.9909
AgBiI4,0.9912
Na3MgZr3P5SO24,0.9912
Ag3PS4,0.9914
Ti3Mn3(SnO8)2,0.9916999999999998
Ba4Ti3PtO12,0.9918000000000003
Ca3InP3,0.9918000000000003
NaGa3Te5,0.9918999999999998
BaSr7Ti7MnO24,0.9921999999999996
BaCa(BiO2)4,0.9921999999999996
Pb3O4,0.9925999999999996
NbV3(PO4)6,0.9933
Nd2CdSe4,0.9937000000000004
LiMn2F9,0.9941999999999998
Sr2LuUO6,0.9942000000000002
SbTe2F6,0.9945
Sc4Te3N2,0.9947
Rb2MnH2OF5,0.9953
Li5MnCr3O8,0.9953000000000004
Na6Ca6SiSn2S11O48,0.9956000000000004
Ni2Hg2OF6,0.996
Sr2V(PO4)3,0.9960999999999998
Tm2Mn2O7,0.9966
TiCo3O8,0.9972
BaZrN2,0.9972000000000004
Sr2In2O5,0.9973
NaH4IO7,0.9986
Y2Pb2O7,0.9987
Rb3NaNb2O3F10,0.9987
CsBi3Se5,0.9987999999999996
K2AsAuS4,0.9988
Cs8Mg(Sn2O3)4,0.9988
Cs4Na2MgV2O8,0.999
La2Te3,0.9992
Ca3V2O7,0.9998000000000004
LiRuF6,0.9999
Li4Ti3Mn4Cr2O18,1.0001000000000002
Na2Ca5Sn3(SO4)12,1.0002
NaMg6BiO8,1.0008
NaNi3P4H8NO16,1.0008000000000004
V(HgO2)2,1.001
Nb10Zn2Si9(SO8)9,1.0013
Te7RuI6,1.0013999999999994
Nb3Ga2Cl9,1.0015
BaTbAgS3,1.0016000000000005
V4Ag2O11,1.0019000000000002
Sm3Mg2CrS8,1.0020000000000002
V2S3O14,1.0022
Na4Ge2Te5,1.0023
Li5V3(CoO5)2,1.0024000000000002
Sm5CuSe8,1.0027999999999997
LiMg6BiO8,1.0029000000000003
Na2MnO3,1.0031
Rb2PtSe2,1.0034
MgV5CoO12,1.0036
SbSe9Cl7,1.0039
SnPS3,1.0053000000000003
Sr2SnS5,1.0054999999999996
Sr2TiMnO5,1.0056000000000005
PdSe2O5,1.0057
RbAg2(AsSe2)3,1.0057
RbPt2Se3,1.0060000000000002
TaBi4ClO8,1.0065999999999995
Na5FeHO4,1.0068
Mn9Zn6Si4(SbO14)2,1.0069
MgTi(CoO3)2,1.0071000000000003
Sr2LiFeO3F,1.0076
LiBeAs,1.0077000000000005
Mg7SnN6,1.008
NaMg2Ge2PS5O24,1.0084
K2Sn(AsS3)2,1.0089
Li4MnSn(WO6)2,1.0090000000000003
UAg3(AsO4)3,1.0093
MgMnZnSiO6,1.0094
RhI3,1.0096000000000005
La4MgCoO8,1.010199999999999
Rb2NaTlBr6,1.0102
Na6La6Nb2Si5S7O48,1.0102000000000002
Na3Be3B3P6O25,1.0103
ZnBi4O9,1.0103000000000004
MnTeH18(SN2)3,1.0103999999999995
Mg(CuO)2,1.0104999999999995
RbCuSe4,1.0105
Li4Ti3Ni3(SbO8)2,1.0106000000000002
ReH8(NCl3)2,1.0107000000000002
Na6PbO5,1.0116
ReSbOF9,1.0116999999999998
MgS2,1.0118
SrLa9MgGa9O29,1.0121000000000002
LiMn2P3O11,1.0122999999999998
TiMn(PO4)2,1.0124
Li6Fe(O2F)2,1.0125
Ge19(AsI)4,1.0131
Ba2SmGaTe5,1.0132
RbLuS2O9,1.0133
SrGdCuSe3,1.0135
SrLaTa2(NO)3,1.0135000000000003
LiMo2P2O11,1.0137999999999998
Na2NiH8(SO6)2,1.0139999999999998
NaGdCu2F8,1.0142
PPdS,1.0142999999999995
Mo(WSe3)2,1.0142999999999998
Pr(ErS2)3,1.0143999999999995
Na10Ca3Ti5Si6(SO8)6,1.0146000000000002
NiH18(IN)6,1.0147
Rb2AgMoCl6,1.0147000000000002
RbGe,1.015
NaFeBr4,1.0155
Na2V(PO4)2,1.0158
Rb2Hg3Te4,1.0159
Na3FeO3,1.0166
Mg(BC)2,1.0168999999999997
Na4Ni7O16,1.0172
K2CeH2S3O13,1.0173
Tb2MgCr2O8,1.0176999999999998
Tb3CuSnSe7,1.0182000000000002
P2Pt,1.0185999999999993
NaLaMnWO6,1.0187999999999997
LiNbCoO4,1.019
MnTe(PbO3)2,1.0191
NaInSe2,1.0191999999999997
Na3Co2SbO6,1.0195000000000007
Sr4C2N5,1.0196999999999998
MgV5CrO12,1.0196999999999998
Te6MoI3,1.0200999999999998
Nb3Se10Br3,1.0205000000000002
Nd(TmS2)3,1.0206000000000004
ZnFe8Ni3O16,1.0206000000000004
Rb2CrCl5O,1.0209
Ba2CaV2FeF14,1.0214
Tb3InS6,1.0214
Bi10Te2Br4O17,1.0230999999999997
Y2MgCr2O8,1.0231
Li5V2Fe3O10,1.0231999999999997
Na18Nb8Zn16Si9(S3O16)9,1.0232
V(TeO3)4,1.0232
Li9Nb7V12O48,1.0234000000000003
Nb3Tl2Cl9,1.0235
TaV(Cu3Se4)2,1.0235000000000003
V3P2O11,1.0239
Li4V3Cr2Fe3O16,1.0240999999999998
Na4Cd3Se5,1.0243
MgCo2(SbO4)2,1.0245000000000002
YBiTe3,1.0246999999999993
Na2Ga2As3,1.0249
CaSiP2,1.0249999999999997
TlPt2S3,1.0255999999999998
Li4Ti4Mn(Fe2O9)2,1.0258000000000005
LiEu2CI3N2,1.0260999999999996
Li7Mn7(P4O17)2,1.0261999999999998
V2Zn3(GeO4)3,1.0263
NaVPO5,1.0264000000000002
Sr4LiCu(CO5)2,1.0264000000000002
V3BO6,1.0272999999999994
MnV(P2O7)2,1.0275
Na5SiAs3,1.0276999999999998
Sr2Y2Fe2O7,1.0278
Nd(HoS2)3,1.0278
RbSm2Ag3Te5,1.0284999999999995
Rb2GaSb2,1.0286999999999995
LuTlTe2,1.0288999999999993
Y12Ge5S28,1.029
RbCu3GeSe4,1.0291
MoP(Cl3O)2,1.0292
Na26In4O19,1.0301999999999998
YTlS2O9,1.0308
Sr4Fe2MoWO12,1.0308000000000002
SrFe12O19,1.0309
Na8Mg(CoO4)2,1.031
Na12Mg10Nb2Si3(S5O24)3,1.0312
Cs4Zr6BBr17,1.0312
RbFeBr4,1.0312
Li13Mn3Nb2O16,1.0313
Nd2InCuS5,1.0313000000000008
Li3V2S2(O4F3)2,1.0314
Sr3Y3N5,1.0318
Sr5Cr3O12F,1.0321
Ta2Te4Br10O,1.0323
SrLiAs,1.0323000000000002
NaH,1.033
Pr2MgSe4,1.0331
Na2In4Ga4SiS11O48,1.0331
ThS2,1.0336
Rb4InSbCl12,1.0336
Zn3Fe4(MoO4)6,1.0337
SrMg30SnO32,1.0338000000000012
RbGdSe2,1.0338999999999998
NdVO3,1.0340999999999996
SrHf7N10,1.0346000000000002
Na5CoSO2,1.0349
ErTlTe2,1.035
Tl2Hg3Se4,1.0356999999999998
VCu3S4,1.0358000000000005
Sb4(SeS)3,1.0358999999999998
Rb2(ReSe2)3,1.0358999999999998
Na2AgAsBr6,1.0359
NaMgSb,1.0359000000000005
Li6MnCr3(PO4)6,1.036
Na8TiAs4,1.0363000000000002
Sr2YCr2GaO7,1.0365000000000002
Sm2MnRhO6,1.0370000000000004
Li3NbO4,1.0370999999999997
Mg(SbO3)2,1.0374999999999996
Nb3P6WO24,1.0375
LiCr2P3O11,1.0380000000000005
TbBiTe3,1.0380000000000005
LuCuPbSe3,1.0381
SiPAu,1.0382000000000002
Na5SnP3,1.0383
MgMn2(SiO3)4,1.0387
Na6Cd7S10,1.0388000000000002
Ti5(TeO6)3,1.0388999999999995
Fe7(OF7)2,1.039
Rb2MoSe4,1.0392
Li8TiS6,1.0393
VCl5,1.0398
VINCl3,1.0398
Mg2ScCr3S8,1.0399000000000005
Li5Mn2Co(NiO5)2,1.0403000000000002
Y7C2I12N,1.0406
TaNb(Cu3Te4)2,1.0409999999999997
LiGa3Te5,1.041
Na6CrN4,1.041
Ba4P2O,1.0411
NbIO2,1.0412
NiTeP2O9,1.0418
ZrS2,1.0418
Sb2Pb2S5,1.0418000000000005
Mg3Ge3(WO6)2,1.0419
Mg3Si9B36C,1.0420000000000007
LiFeSbO4,1.0421
LiTiFeO4,1.0421
Na4MgV10(H11O13)4,1.0425
Ti11Fe17O42,1.0425000000000004
Li4Ti3Fe2Sn3O16,1.0427999999999995
InSbO4,1.0427999999999995
ReH12C3S3(NCl)6,1.0428
Na2Ca3Ge(SO4)6,1.0431
Sr5Cr3ClO12,1.0435
Pr2ZrS5,1.0437000000000003
MgCo2Te2(MoO6)2,1.0437000000000003
Pr(YS2)3,1.0437999999999996
NaTlSe2,1.0443000000000002
Zn7SnN6,1.0444
Sm2CdSe4,1.0448000000000004
TiSnO3,1.0452000000000004
Li4V3Ni3(WO8)2,1.0464999999999995
PtC8(SF3)4,1.047
HgS4,1.0475
MnCd(GaSe2)4,1.0478999999999998
Na6Mg4Si3Ge4(S3O16)3,1.0482
Mn2In2O7,1.0485999999999995
Sr2UInO6,1.0488
MgV4(OF6)2,1.0488
Sc2TlCu3S5,1.0488999999999995
MgV2Fe2(H2O5)2,1.0489000000000002
Tb2Cu(BO2)8,1.0489000000000002
KTm2Cu3Se5,1.0489999999999997
Mg14MnCdO16,1.0492999999999997
RbSm2Ag3Se5,1.0496
Mn5CoO12,1.0496
ScRhO3,1.0496999999999996
Tl6V7P5O31,1.0497
CsSnSe3,1.0499000000000005
Mn7F16,1.05
Na3TlBr6,1.0502
RbTb2Ag3Te5,1.0504000000000002
TiAg2O3,1.0504999999999998
Tl3AgI5,1.0507
PtCl2,1.0515
Na2Zr12B2I5Cl23,1.0515000000000003
Pr2HfS5,1.0515999999999996
Ba10BrN5Cl4,1.0519000000000005
MnCrH18(NF)6,1.052
RbBi4Se7,1.0521
CaCu(Si2O5)2,1.0521000000000005
Li7Y7Zr9S32,1.0522999999999998
RbDy2Ag3Te5,1.0526000000000004
Mg(AlSe2)2,1.053
Nb2CoO6,1.0535
Mn3SnO8,1.0539999999999998
Rb4Ti3S14,1.0541
LiMn2OF3,1.0545000000000002
Mg2Nb2CrO8,1.0545999999999998
Nb2V3(Cu3S4)5,1.0546000000000002
LiMn8F33,1.0547999999999995
Pm2MgSe4,1.0551999999999997
Sc(CuS)3,1.0553
Li3Mn2V3O12,1.0555
LiAlPdF6,1.0557
Re2MoSe4,1.0564
TlPd3O4,1.0564999999999998
Na2Zn2O3,1.0572
MgFe2(ClO)2,1.0579
Mn2CdTeO6,1.0581
MnNi7O8,1.0592000000000006
Pr2Mn3Sb3O14,1.0592999999999997
TaSnRh,1.0594
Li4Nb2V3Ni3O16,1.0597
Te6RhI3,1.0601000000000005
Sr(BiS2)2,1.0604999999999998
Na2Te2As,1.0608
Na2InNiF7,1.0609
Sm6Mn(SiS7)2,1.0611999999999997
LuSc(FeO3)2,1.0614000000000003
CaBi2(CO4)2,1.0618
Nd2AlNO3,1.0619999999999994
Li4V9O18,1.0621
MgSnN2,1.0621
Na4ZnSi2GeSO12,1.0622000000000005
Na2Ni(H7N3)2,1.0626
Na9Co2O7,1.0627
Zn3TeO6,1.0627999999999995
Rb4SnSb6,1.0629999999999995
LiMn2TeO6,1.0634000000000006
MgMn2(SeO3)4,1.0638
Y4MgS7,1.064
W3I8,1.064
Mg2Fe7O12,1.064
Sr3MgV2O8,1.0643999999999996
LiVOF2,1.0644000000000002
Si7Tc4,1.0648
Li7TiFe3(PO4)6,1.0648
Rb14ZnGe16,1.0649
V3O7F,1.0649000000000002
Li4MnSn2Se7,1.0650000000000002
Ba2GaBiTe5,1.0651999999999997
Re2(HgO2)5,1.0653
In2CuTe3I,1.0658
Na4MgSi3Sn3(SO8)3,1.0660000000000005
Li6Te2O9,1.0665000000000002
BiS2,1.066599999999999
Nd2HfS5,1.0667
DyCuSe2,1.0667999999999995
Li47(NiO4)8,1.067
Sr3(GaP2)2,1.0671999999999997
K2CuAs,1.0674
Li3Nb4CuO12,1.0675999999999997
PrCuS2,1.0678
Rb2CuAsF6,1.0685000000000002
Gd2Zr2O7,1.0690999999999995
ZnInGaO4,1.0691999999999997
Sb8Pb7S19,1.0694999999999997
PtCl3,1.0698
WBr6,1.0699
Li2SnBO4,1.0700000000000005
SbIrS,1.0700999999999992
MgZn2Te2(MoO6)2,1.0700999999999996
TeMo3Se7I6,1.0700999999999998
Li3P3WO11,1.0703
Ti4P8S29,1.0703000000000005
Li8MgCo13O28,1.0704
YCuSe2,1.0704999999999996
MgCrInS4,1.0710999999999995
Na2Zr2Si3Ge2(SO8)3,1.0713
WI4,1.0716
Nb3ICl6,1.0718
Ti4S24Cl6O,1.0718
Cu2AgPS4,1.0718000000000003
NaCaFe2(SiO3)4,1.072
Li3V3O5F3,1.072
Ta4Se8SI8,1.0721
Li9Mn2P4HO18,1.0722
WI3,1.0734
NaPH6,1.0735
La4MgCr3O12,1.0735
RbHgSbSe3,1.0737
CaCr3P3O13,1.0738
MgTa4(CuO6)2,1.0743999999999998
Li9CrN5,1.0746000000000002
Rb2(NbCl3)3,1.0748999999999995
Sm2MgSe4,1.0750000000000002