formula,band_gap
NdNO4,1.0753
Mn2PH2CO7,1.0754
Na2Mg2Si3Ge6(S3O16)3,1.0755
Zn3Fe16Ni5O32,1.0755
Rb2CuBiCl6,1.0756
Rb7Th2(P2Se7)3,1.0757
Mg2Nb2VO8,1.0759000000000007
RbLaTiNbO6F,1.0761000000000005
Nd2ZrS5,1.0763999999999996
MgCuF4,1.0769000000000002
Na6Ti6Zn2Si5S7O48,1.0771
Ti(SnO2)2,1.0774999999999997
CsFeBr4,1.0776
NdCuS2,1.0776000000000003
ReNCl4,1.0777
Sr2CdCu(SO)2,1.0777999999999994
K2Ag2GeSe4,1.0778
NaCaSnP(SO6)2,1.0783999999999998
Na12Ca10Nb2Si3(S5O24)3,1.0783999999999998
Rb3Au3I8,1.0785
Sr7CaTi7MnO24,1.0789
TiZnCo(PO4)3,1.0791000000000002
Tl4GeSe4,1.0793
U7V5Ag3O35,1.0793
PrFeO3,1.0793000000000004
RbCuO,1.0794
Nd2Pt2O7,1.0795
NbCl4,1.0797
Bi2PbS4,1.0797
NaYZrS4,1.0797999999999996
SrPdF4,1.0798
CsAg2BiS3,1.0803000000000005
Zn2BiSbO6,1.0804999999999998
MgTiMo(PO4)3,1.0805000000000002
Li5Mn3(FeO5)2,1.0806
Na8Ti3Fe(Si4O11)4,1.0806
Nd2Pd2O5,1.0808999999999995
NaMnAsCO7,1.0809
Rb5Sn(PSe5)3,1.0812
Ce3SnO8,1.0815
Mg30BiBO32,1.0817999999999994
Li3V7O12,1.0818999999999996
V2P2O9,1.0819
Rb4Mn(AsS4)2,1.0820999999999998
SrMg30SiO32,1.0831000000000008
PRhSe,1.0834
MnZn(FeO2)4,1.0838999999999994
NiH24C6S6(BrN6)2,1.0839
Rb3P3(HO3)4,1.084
Zr6SiI14,1.084
Ca11GaSb9,1.0841000000000005
NdFeO3,1.0842
Sr15Al6(OF24)2,1.0846
Mo(WO4)2,1.0847000000000002
Rb2TlGaI6,1.0849
Tl3SiTe3,1.0854
Na6CaSi6Ge7(SO8)6,1.0855
TiI4,1.0859
K2NaMoI6,1.0859
Li7W5O16,1.0867999999999998
P2RhClF6,1.0868
Rb2Hg3Se4,1.0869
Rb3CoCl5,1.0873
RbGe2N3,1.0881000000000007
SmFeO3,1.0882
Sm4PdO7,1.0884999999999998
LiCo(WO4)2,1.0885000000000002
LiVPCO7,1.0886
Sm(ErS2)3,1.0887000000000002
ZnFe(GeO3)2,1.089
MgPO4,1.089
Te6MoBr3,1.0895
Li5Cr4O8,1.0896
Te6RhCl3,1.0896
Li24Ti11CrO36,1.0898
Na2Cd2Fe(PO4)3,1.0899
LiAgO,1.0899
TlAsSe2,1.0901
MoCl6,1.0905
Y3InS6,1.0907
Na5La2SiGe2P5O24,1.0913000000000002
LiV2P2O9,1.0916
Li5Cr2Fe3(PO4)6,1.0918
Na6Ti4In4Si5S7O48,1.0921999999999998
Y3Mg2CrS8,1.0922999999999998
Cd2GeO4,1.0923000000000005
SnPbS3,1.0929000000000002
Nb3Se10Cl3,1.0930000000000002
SrS3,1.0930999999999995
Li3V8O16,1.0935
Si2Sn2H41C16O3,1.0935
AgAsBr4,1.0937
BaWN3,1.0938
Li4Ti3Co3(TeO8)2,1.0941999999999998
Mg30CoBO32,1.0942999999999996
Sr2TaAlO6,1.0943
K4Rb2Co2O5,1.0943000000000005
SnGeN2,1.0957
Rb3Bi2S2(ClO2)5,1.0961
Ho3InS6,1.0963000000000005
NaBiO3,1.0963999999999998
LuCu(WO4)2,1.0964999999999998
Li5Ti2Fe3O10,1.0966999999999998
Mn2Si4O11,1.0968999999999998
Sb8Cl27F13,1.0969
La3Mn8BiO20,1.098
MnZnAsO5,1.0981999999999998
MgMn2(OF)2,1.0987
Tl4O3,1.0991999999999995
Na2Mg4Ta4Si3(S3O16)3,1.0992
Li5CoO4,1.0993
PdPbF4,1.0993999999999997
K2MnCl6,1.0996
LiVCr(P2O7)2,1.0998
Gd4PdO7,1.0999
Li2Fe3(PO4)3,1.0999
Ti2Cr3O12,1.1001
Na2AgIrF6,1.1009
Na4ZnSi3Sn3(SO8)3,1.101
Na15Nb5Zn7Si9(SO8)9,1.1012
LiCaAs,1.1014999999999997
Tm4MgS7,1.1018999999999997
Mg30CoBiO32,1.1021
Li4VCo3O8,1.1025
Li3V2P5O18,1.1034
Sr3Co(CN)3,1.1035
ZnFeBO4,1.1035999999999997
Fe5HO8,1.1039
Bi14SO24,1.1041
Mg30AlCuO32,1.1042000000000003
LuBiTe3,1.1042999999999994
MgAl4(HO)12,1.1046000000000005
MgVSiO5,1.1046999999999998
TiBi2(O2F)2,1.1048999999999998
Li4Nb3Fe5O16,1.1055
Li4TiMn(WO6)2,1.1055
CuH18PdC4N4O11,1.1055
Ba7TiN6,1.1057
Li2VCl4,1.1057999999999997
ZrTe2Br5,1.1062
Na2Mn2Fe(PO4)3,1.1065
Rb5(CoO2)2,1.1065999999999998
Ba10Br4N5Cl,1.1066000000000005
Mg2AlCr3S8,1.1069000000000004
Zn4CdSe4S,1.1071
Ti6Fe8O21,1.1071999999999995
Li4VCo3(PO4)4,1.1076000000000006
Y2MgSe4,1.1077000000000004
Ta2Tl4Se11,1.1079
Tb6Ge3Se14,1.1079
Te2As(SeF2)3,1.1084
SbI3(BrCl3)2,1.1091
Li4Ti3V2(Fe2O9)2,1.1092999999999995
Mg(WO3)2,1.1096
Ti3Nb2V3O16,1.11
RbInTe2,1.1111
Li4Ti2Fe5O12,1.1112000000000002
LiTiFe2O5,1.1117999999999997
Lu2Mn2O7,1.1121
LiFe2(CO3)3,1.1123
Sr3TaN3,1.1123000000000005
MgTe2(WO6)2,1.1124
ZrS3,1.1132999999999995
Na2Ni3O7,1.1134000000000002
HfAg2S3,1.1134999999999995
Pr2VFeO6,1.1134999999999995
Li8NiO5F,1.1136
CsMnFeF6,1.1137
MnVPbO5,1.1138
Cr2Ag2O7,1.1141
Sm2TeMo6(H5O9)4,1.1144
Mg2Nb2TeO8,1.1145
MgMn2(CO3)4,1.1145
Mg2CrGa3S8,1.1149999999999998
Li4V5(FeO6)2,1.1151999999999995
Li3VF8,1.1158
LiVCrP2(HO5)2,1.1159
Na4CaSi3Sn3(SO8)3,1.1161
Cs3CuTeS9,1.1161
MgTe2,1.1161999999999992
VCdCuO4,1.1168
Na3PSe4,1.1168999999999998
V2Ag(PO5)2,1.1175000000000002
TcP2H18(C3Br)2,1.1176
Y3CuGeSe7,1.1180000000000003
La2ThSe5,1.1182
Na6Mg2Ti6Si5S7O48,1.1182999999999998
Li3V4SnO12,1.1183000000000003
Rb2(NbBr3)3,1.1183999999999998
MgMnZn2WO6,1.1192000000000002
RuClF8,1.12
Na10Ca4Nb4Si7S5O48,1.1202
WBr4O,1.1204
Mg11(Fe15O28)2,1.1207000000000005
Na2MgTi3Si2(SO6)4,1.1208999999999998
YMnFeO5,1.1209000000000002
TmCuPbSe3,1.1212
KSbO3,1.1212999999999995
Sr2UFeO6,1.1213999999999995
TeAuI,1.1214
Mn13Al4Si2(SbO14)2,1.1216
Sr8MgP4(IO4)4,1.1216999999999997
Gd3Se3N,1.1217
Zn3Ni4(SbO6)2,1.1224000000000007
SrLuCuSe3,1.1226999999999996
Li4Ti3Fe3(TeO8)2,1.1232999999999995
Na3Sr3AlP4,1.1233
SbOsSe,1.123400000000001
Sm2InCuS5,1.1237000000000004
Na3Sb5O14,1.1243999999999996
Na14Ca5Si6Ge3(SO8)6,1.1246999999999998
Na6Zn2Si3Ge2(SO8)3,1.1248
Na2Ga4Si3Ge4(S3O16)3,1.125
Te6IrCl3,1.1250999999999998
SmFeGe2O7,1.1254
YWN3,1.1259
Hg4As2O7,1.1261
Tb3CuGeSe7,1.1262000000000003
U2CuAs2(H4O5)4,1.1269
Li7V7(P4O17)2,1.1273
Na3MnSiCO7,1.1273
Zn4(MoO4)3,1.1273
Na2Cu(Si2O5)2,1.1273000000000004
Li4V2Co3Sn3O16,1.1273999999999995
Li4V5(Fe2O9)2,1.128
RbZr6CCl15,1.1281
Na4Zn3Se5,1.1282
MnH30C6(Se2N3)2,1.1282
NaSi,1.1286
Rb3Mn2Br7,1.129
Li3V4CuO12,1.1290000000000002
Nd3CuSiSe7,1.1291000000000002
Na6Se2O9,1.1291999999999998
KSbSe2,1.1298
NaV3(FeO4)3,1.1299
Na8Zr3Si12SnO40,1.13
NaPrMnWO6,1.1303
Ge19(SbI)4,1.1306000000000005
YMo3O8,1.1308999999999996
Te3WCl4O,1.1313
Li7Fe7SiO16,1.1313
Sr7GeN6,1.1313
Cs3Ag2Sb3S8,1.1315999999999995
ZnCoMo2O7,1.132
MnH10SeO9,1.1322
Sm6Ge3Se14,1.1326
MnSb2Pb5O11,1.1326999999999998
Na18Ta4Zn8Si9(SO8)9,1.1327000000000005
Mg6CdFeO8,1.1327999999999996
LiMgSb,1.1328
VBr2,1.1332
Na6MnSe4,1.1332999999999998
Zn2InCuTe4,1.1334000000000004
MnV2HPb2O9,1.1334999999999995
La2ZrS5,1.1334999999999995
Mg3MoN4,1.1341
CsReCl4,1.1342
Rb6CuAgO4,1.1344
MnPNO5,1.1345
Li4Nb2V3Cr3O16,1.1347999999999998
U2CuP2(H4O5)4,1.1349
Na4Li5(WO3)10,1.1349999999999998
Na2CuBiCl6,1.1349999999999998
NaBiO2,1.1350000000000002
MgZn3Cu2H14(SO9)2,1.1353
RbAg4I5,1.1359
K2(ReSe2)3,1.1361
Rb2PtC2,1.1362
MgCo2(SiO3)4,1.137
RbSi2O5,1.1371
MoSe2,1.1384
Ba2SnSe5,1.1384
Ba4Sb4Se11,1.1384
Tl2Au4S3,1.1385
SrMg6CoO8,1.1388999999999996
NaNbZnSi(SO6)2,1.1397
Pr6MnS10,1.1401000000000003
Ti3(AsO4)4,1.1405999999999998
Zr2Nb2Si3(SO8)3,1.1406
LiCuCO3,1.1411999999999995
Tl2SnO3,1.1414
Li4MnCr2Fe3(PO4)6,1.1417000000000002
LiNbN2,1.1417000000000002
NaMn2FeAg(PO4)3,1.1417000000000002
Mn(CuCl2)2,1.1420000000000003
K2CuP,1.1421
Sm2ZrS5,1.1427999999999994
BAs,1.1428000000000005
Na6Ca4Nb8Si9(SO8)9,1.1432000000000002
Na18Ca16Ta8Si9(S3O16)9,1.1433
Na2PtS2,1.1433
ReSe2,1.1434000000000002
MnGeO3,1.1435000000000004
Dy2Cu(SiO3)4,1.1438
SbPO4,1.1438
Lu3Mg2CrS8,1.1439000000000004
MoP3H27C9I2O,1.1442
Na3AgO2,1.1444
P3Ru,1.1445999999999996
Na2Ti3ZnSi2(SO6)4,1.1447
V2P4H3O16,1.145
SnBrCl,1.1451
Rb4Te8O23,1.1452
Sr3(AlAs2)2,1.1456000000000004
Na2SnBAsO7,1.1457999999999997
Na6Si7Sn8S5O48,1.1458
Rb2As2Pd,1.1458000000000002
Ga(FeO2)2,1.1462
Rb2InGaBr6,1.1462
Na6Mg4Nb20Si21(S5O48)3,1.1467
TiHgO3,1.1470000000000002
SbIrSe,1.1473999999999993
MnTlCl3,1.1477
NaCr(PS3)2,1.1478000000000002
Li5VO4F,1.1479
Li4VCr(WO6)2,1.1479
RbMnP2O7,1.1481
Na4CoO3,1.1481
Y4Te3N2,1.1482
CuH6Pb4(SO7)2,1.1483
InAg(PS3)2,1.1483
Rb2MnBr4,1.1485
BaCdPF,1.1489000000000005
PrMg(MoO3)2,1.1494
Sr4SiAs4,1.1494999999999995
Na6Nb4Zn4Si5S7O48,1.1495
CaFe3Si2O9,1.1499
MgZn4(Se2O5)4,1.1501
Pr3S3N,1.1501
LiMnAsCO7,1.1502
Mg2PtO4,1.1505
RbLi2Co2(BO3)3,1.1508
Li7Cr3(WO8)2,1.1508
PdSeO4,1.1509
Mg14CoBO16,1.1512000000000002
Li9Mn5(SiO8)2,1.1513000000000004
Mg(RhO2)2,1.1521
SrMgNiO3,1.1523
CrH8C4(S2N3)2,1.1525
Na24Mg10Nb2Si9(SO8)9,1.1525000000000003
Tl2GeSe3,1.153
V(SbO3)4,1.1530000000000005
LiFe3(OF3)2,1.1533
Zn(SbN2)2,1.1533999999999995
Na8Nb2Cu4S21,1.1534
NaFe5O8,1.1536
GaN5O14,1.1539
RbTlCl3,1.1539
LiCo2P5O16,1.1541
W6CCl18,1.1546
NpF6,1.1546
Na2CaTiSi(SO6)2,1.1554
Na3Cr2(PS4)3,1.1554000000000002
TmCuSe2,1.1554999999999995
MnVP2(O4F)2,1.1557
ZrFeTe,1.155800000000001
Sr7SiN6,1.1562999999999994
Na3Fe5O8,1.1562999999999994
Rb2Sn2H3N,1.157
Rb2LaTa6(Br5O)3,1.1572
MgTi(FeO2)4,1.1572
MgVFeP2(O4F)2,1.1582
GdAsO4,1.1584
NaCo2As3O10,1.1586
MgTiMnV4O12,1.1589999999999998
RbSi,1.159
CrI3,1.1590000000000005
RbEr2Cu3S5,1.1596000000000002
Na2TlPCO7,1.1597000000000002
Mg2Ga2S5,1.1601999999999997
Na2Ti4Al4Si3(S3O16)3,1.1605
Na2GaAgCl6,1.1607
LiZn4Fe13O24,1.161
Sm2HfS5,1.1610000000000005
Sm3CuGeSe7,1.1611999999999996
RbAgSe4,1.1614000000000002
LiZn2Fe9O16,1.1616999999999995
Ti3MnNi2(PO4)6,1.1616999999999995
Ta(TeCl3)2,1.1619
V3AgO8,1.162
MgCoF6,1.162
Li5Fe5(CoO6)2,1.1622
Y2Mn3Sb3O14,1.1622000000000003
TaTe4Cl4O,1.1624
RbAg5(PS4)2,1.1624999999999996
Rb2TlSbBr6,1.1629
PrZnPO,1.1635000000000009
LiMg(Fe5O8)2,1.1639000000000004
YMgCo(WO4)2,1.1640999999999997
Re3Se4Cl,1.1641
Lu3InS6,1.1641999999999992
YMn2O5,1.1643
Sr2AlCr2GaO7,1.1645000000000003
LuAgTe2,1.1646999999999998
ZrSbRh,1.1648000000000005
WF4,1.165
MgMo3Se4,1.1651999999999996
Rb3Sb5O14,1.1656000000000004
NaNb3ZnSi3(SO8)3,1.1657000000000002
Pr6Ti2S7O6,1.1657000000000002
LiSi2B,1.1667999999999994
NaYSiSn(SO6)2,1.1668
Mg2CrIn3S8,1.1668000000000005
Na5SrNbAs4,1.1672999999999998
Na6Ca4Ti4Si3(S3O16)3,1.1675
Rb2YAuI6,1.1678000000000002
SmCuS2,1.1678000000000006
Pr6S4N3Cl,1.1679999999999997
Sb2(KrF4)5,1.1694
SrTb2Fe2O7,1.1701
Mg3Fe4(MoO4)6,1.1707
MnI2,1.1707999999999998
Gd4(SiS4)3,1.1710000000000005
Na3Mg2(MoO4)3,1.1715999999999998
Rb2ScAuI6,1.1719
Nd10Ti12O39,1.1720000000000002
Rb3AgSn3Se8,1.1725
TaI5,1.1727
Rb3Nb2AsSe11,1.1729
NaSmTe2,1.1738
SrV2P2O9,1.174
Na18Mg8Nb16Si21(S5O48)3,1.1741
Cd4As2I3,1.1746
Tl2P4Pd3O14,1.1747
TiTlPS5,1.1748999999999998
Lu2V2O7,1.1751
VZnF4,1.1752999999999998
Na6Ti4Al4Si5S7O48,1.1757
MgMn2V4O12,1.1757
Na6NiO4,1.1771
Na2Al2As3,1.1771000000000005
MgCrO2,1.1771000000000005
Li6V2OF11,1.1776
Na6Mg6SiGe2S11O48,1.1777
Li6MnFe3(PO4)6,1.1778000000000002
Cs3GaI6,1.1783
Na8Mg3Ti(PO4)6,1.1784
Ta(ICl)2,1.1785
Tm2CdS4,1.1785
RbIn3S5,1.1785
ScVO3,1.1786000000000003
LiV3CrO8,1.1787
MnVP2(HO5)2,1.1787999999999998
Na4MgTi3Si3(SO8)3,1.1787999999999998
ZnSnO2,1.1788999999999996
Re3PbS6,1.1789
Rb2CoF6,1.179
La2Pd2O5,1.1790000000000005
Mg2IrWO6,1.1793000000000005
NdMn2O5,1.1794000000000002
NaCoP3(H4O5)2,1.1794999999999998
CsMg30BiO32,1.1799999999999995
RbRuF6,1.1801
SrZr12B2I5Cl23,1.1801
Mg(Mo3O8)2,1.1803
Ce(ClO4)4,1.1804
Rh2(CN2)3,1.1808
RbV(PO4)2,1.1812
LiMnH8(SO6)2,1.1821000000000002
Na2Mg2Ti2SiS5O24,1.1828
Zn(SbO2)2,1.1829
LiCo5O3F5,1.1829999999999998
Te4As2S(OF6)2,1.1831
Li3Mo(PO3)8,1.1831
Na6Nb8Zn4Si9(SO8)9,1.1831000000000005
TbCuS2,1.1832000000000005
AgBi(PS3)2,1.1837999999999995
Mg30VFeO32,1.1838999999999995
Rb2Ce(NO3)6,1.184
MgBi4(MoO6)2,1.1842000000000006
HoCuPbSe3,1.1844
DyCuSeO,1.1846000000000003
Tb(CuSe)3,1.1848
Rb2Pd3S4,1.1848999999999998
Tb2MnNiO6,1.1852999999999998
Mg2VSbO6,1.186
Na10Ca2Si7Sn6S5O48,1.1861000000000002
MoPNO7,1.1863
Na2PdCl4,1.1864
CsEu2I5,1.1866
Zn3Fe4(SbO4)6,1.187
Rb2FeAuF6,1.1878
SrMnFeBiO6,1.1880000000000006
Ti(TlS2)2,1.1882
Zn2NiO3,1.1883
TcS2,1.1885000000000003
TmCoO3,1.1885999999999997
MgV2Cd2O7,1.1889000000000003
MgFe4(O3F)2,1.189
Sb2WO6,1.1890999999999994
AgHg2PO4,1.1892000000000005
Mn(Bi5O8)5,1.1893000000000002
Mg3V2O7,1.1895999999999995
Tb2HfS5,1.1896000000000004
Rb4Ti2P6Se25,1.1898
Na6CaSi4Sn3(SO12)2,1.1902
CaMnZnAs2H3O10,1.1903
BaSrCeNiO6,1.1908
Mg30AlCoO32,1.1911999999999994
SnHgP14,1.1914999999999996
Na10Mg3Ti5Si6(SO8)6,1.1916000000000002
LaCu(WO4)2,1.1917999999999995
Mg2Sc3CrS8,1.1926999999999994
MgNb2Cu2(O3F)2,1.1927
Sr(AuF6)2,1.193
ZnSnP14,1.1930000000000005
Nd3CuSnSe7,1.1932
Tl4HgI6,1.1934
Nd3S3N,1.1935000000000002
Li5SiP3,1.1936
Ta(TeBr3)2,1.1942
La4S3N2,1.1943
MgNb2(SBr)4,1.1943
Mg3V2O6,1.1945999999999994
Na2Y4Nb4Si5S7O48,1.1948
NbP4(S2Cl)5,1.1953
P2H12Rh(CO)4,1.1960000000000002
Na2Zr4Si5Sn4S7O48,1.1964
La3GaS5O,1.1964999999999997
NaMo2(P2O7)2,1.1965
K3Cu5O4,1.1967
MgCo2(CO3)4,1.1972
Li2PdO2,1.1973000000000005
S4N2O3F,1.1974999999999998
SrAuO2,1.1977000000000002
Tb2ZrS5,1.1979999999999995
NaSrZrVO6,1.198
NaFe2PbF9,1.198
RbTa(CuTe2)2,1.1980000000000004
SnAs2O7,1.1983
K3Sb5O14,1.1985
Ba7In2(Se3F4)2,1.1988
Li4VNi3(PO4)4,1.1989
MgVMoO5,1.1992000000000005
Sb2Te2O9,1.1992000000000005
Ta2MnZnO8,1.1994000000000002
SnI2,1.1995999999999998
Li4Ti3Fe3(SnO8)2,1.1995999999999998
WSe2,1.1997000000000002
Na2Zr2Si3Sn2(SO8)3,1.1999000000000002
Se2NCl3,1.2001
Li3MnAl2O6,1.2006
Li4V3Sb5O16,1.2006000000000006
Al4SiC4,1.2009
MgCrAs2O7,1.201
Na3MnBPO7,1.2012000000000005
Li3MnVP2(O4F)2,1.2013000000000005
YZnAsO,1.2015000000000002
RbTlO,1.2016999999999998
Li5NiOF5,1.202
Li3NbS4,1.2022
VSb2NCl14,1.2024
SnS2,1.2026
Nd6S4N3Cl,1.2028000000000003
Nd2MnNiO6,1.2030000000000003
SrLaCuS3,1.2031
Na2TeSe3,1.2031
Rb2PbO3,1.2033
Rb2MnCl6,1.2037
LiOsF6,1.2041
SrMg14MnO16,1.2042000000000002
Li12CrCo3P4(CO7)4,1.2044
RbTlS2,1.2046
K2PdBr4,1.2049
Li4Ti3V2Ni3O16,1.2050999999999998
Na2Nb4In4Si5S7O48,1.2055
Pr6Ge3Se14,1.2057999999999995
V2Ag4O7,1.2058
Rb2TlAsBr6,1.2058
Li4Ti4V4NiO18,1.2060999999999995
LiZn2(FeO2)4,1.2061000000000002
V2Ni(PO5)2,1.2062
ReH22C4S4N8Cl8O3,1.2063
Li7Mn7P6(O8F)3,1.2070000000000003
Na3VSiBO7,1.2076
RbZr6MnCl14,1.2076000000000002
MnNb2ZnO8,1.2081999999999995
K2SiP2,1.2087
Li2CrF6,1.2089
Na4Sr2TiAs4,1.2089
Tm2Si9B36C,1.2089
Tm2Mn3Sb3O14,1.2092
TbCu(WO4)2,1.2094999999999994
NaAgO,1.2098
Na6Y4Si5Sn4S7O48,1.21
SbI3Cl8,1.2101
Li4NbCr(TeO6)2,1.2101000000000002
V4CrFeO12,1.2106
NaMgNb3(PO4)6,1.2107
Na10Ca4Ti4Si5S7O48,1.2112999999999998
Pr2Mg(MoO3)4,1.2114000000000005
Na2Y3Nb5Si6(SO8)6,1.2118
Sb2S2O,1.2119999999999995
Na6MgV2O8,1.2124
Na2Si3Ge4(SO8)3,1.2127
Rb2GaAgCl6,1.213
V5BO9,1.2132
ZnS,1.2132999999999998
CsRb(MnCl3)2,1.2133000000000005
Sr4P2O,1.2134
NaVAsO5,1.2138
LiFe6(OF2)4,1.2140999999999995
MgSnP2,1.2147000000000006
Mn3Cd2O8,1.2148
Tl6PbI10,1.2149
Na2CS3,1.215
LiV3O3F7,1.215
MgFe3(PO4)3,1.215
ErTlSe2,1.2151000000000003
PtF4,1.2151999999999998
NaZnGeP(SO6)2,1.2153999999999998
Tl3AsS3,1.2156000000000002
MnP2HO7,1.2160000000000002
Na5InTe4,1.2161
NbP2Se2Cl5,1.2163
SrNdCuS3,1.2165
Si2Ag2O5,1.2165
Na2Mg4Ti4SiS11O48,1.2167
Na3Mn(BO3)2,1.2168
Fe9O10,1.2168000000000003
Na4Al2Si3Ge2(SO8)3,1.2169000000000003
Y2HgO4,1.2172
MgZn2Mo3O8,1.2181000000000002
Na8Mg(NiO4)2,1.2182
LiV3(OF3)2,1.2184
Li7V4(CO3)10,1.2185
Sr4CN4,1.2186
LiMn4(PO4)3,1.2188
Pr3CuGeSe7,1.2189
Rb3BN2,1.2192000000000005
Rb2Sn2O3,1.2195999999999998
PrBi2IO4,1.2196999999999996
NaNb3Zn(PO4)6,1.2198000000000002
NdBi2BrO4,1.2198999999999995
Sb4H8C2S7N,1.2202000000000002
VAgHgO4,1.2204
V3Co(PO4)6,1.2207
TmMn2O5,1.2211
Sr3LaMnCrO8,1.2211000000000007
Ag2HgSI2,1.2212000000000005
Na2La4Nb4Si5S7O48,1.2215
NdCu(WO4)2,1.2215999999999996
TiBi8W(ClO8)2,1.2218
MgIn2O4,1.2218
SrMg6MnO8,1.2219000000000009
Rb3Sb2Au3,1.222
Rb2Sb4S7,1.2221000000000002
LaBi2IO4,1.2225
Na3CuF6,1.2227
PBr7,1.2227
K2VCuS4,1.2228
Nd3CuGeSe7,1.2228000000000003
Sr5Zr2N6,1.223
Ba2PbO4,1.2232000000000005
NaVPCO7,1.2233999999999998
MgNb2(FeO4)2,1.2234000000000005
LiSb(TeO4)3,1.2243000000000004
Rb8AlAu3O4,1.2244
TaCl4,1.2245
Na2Zn5Ge3(SO4)12,1.2249
Na10Ti5Zn3Si6(SO8)6,1.225
ScWN3,1.2255
Ca3Co2(Si2O7)2,1.2255000000000005
NdTlSe2,1.2255000000000005
MgFe2(OF)2,1.2255999999999996
Na9Ca5Nb7Si9(SO8)9,1.2257
Na2Sc4Ti4Si3(S3O16)3,1.2258
Cd4Te5Pb,1.2262999999999995
Y2HfS5,1.2263000000000002
MgV4FeNiO12,1.2272999999999998
Rb3MnF7,1.2275999999999998
Li7Co(O2F)2,1.2277
Na10Zn4Si5Sn4S7O48,1.2280000000000002
VSO5,1.2283
Sr7Al12O25,1.2284000000000002
Ta3Br7,1.2286
VFe3Ni2(PO4)6,1.2288
V2Bi7O15,1.2288999999999994
Cs2TlSbBr6,1.2294000000000005
Na2ZnGeP2SO12,1.2295
SmSF,1.2296999999999998
NbCo(PbO3)2,1.2298999999999998
Na3VS4,1.23
TbCuPbSe3,1.2303000000000006
Rb3V2ZnP4O17,1.2305
Rb2VCuS4,1.2306
RbCu3SiSe4,1.2308999999999997
Li3MnSiBO7,1.2309
Mg3Ga3N5,1.2309
Li24Mn11CrO36,1.2311
Na6MgSi4Ge3(SO12)2,1.2315
PrTl2InSe4,1.2316000000000005
NdZnPO,1.2317999999999998
CaTaNO2,1.2321999999999995
Si(HgO2)2,1.2322
Li7Mn2P7O24,1.2326
PtI2,1.2328
Sr2Bi2Se3O2,1.2328999999999994
Mn2Nb4Zn3O16,1.2336999999999998
Sc2PbSe4,1.2338
Rb4Zr3Se14,1.2338
Li4VP2O9,1.2345
Na4Ca3SiSnS5O24,1.2345
MgCdTe2,1.2345000000000002
Te2PdBr6,1.2345000000000002
LaCuS2,1.2345999999999997
K11LiMn4O16,1.2347
Li5Ti2Mn3O10,1.2347000000000006
Y2ZrS5,1.2348
Na7VN4,1.2348
Ba7Sn3Te3Se10,1.235
Mg30ZnCoO32,1.2351
HgAsO3,1.2351
CsRuF6,1.2352
ZnFe16Ni7O32,1.2355999999999998
MgP2(WO5)2,1.2356999999999996
NaSrP,1.2357
MgZn2(FeO2)4,1.2365
Na2MnCdFe(PO4)3,1.2365
Fe4Bi2O9,1.2366
LiVP3(H7O8)2,1.2366
CaMg30CoO32,1.2366
SrCaInSbO6,1.2367999999999997
Cs2BiAuF6,1.2369
NaSrZrBiO6,1.2369000000000003
NaRh(SO4)2,1.2372
Te7OsO5F32,1.2372
Na2CaGe3P4(SO12)2,1.2372999999999998
CaFe4(PO4)4,1.2373000000000005
Gd(IO3)3,1.2373000000000005
Li3V3(CoO6)2,1.2374
Rb3PuH4O7,1.2382
SrV4O10,1.2389
Sm6Ge3S14,1.239
Na4Ta2Zn2Si3(SO8)3,1.2393000000000003
V4As2O13,1.2396000000000005
CuTeSBr,1.2396000000000005
LiFe8(BO3)8,1.2399999999999998
MgV2(OF3)2,1.24
Rb2Ag(AsSe2)3,1.2402
MgV(TeO3)4,1.2403000000000004
Sr2La14Mg4(Ga4O15)3,1.2405999999999997
K2ScCuF6,1.2408
Re3Te4Cl5,1.2409
Sr(CuO)2,1.2409999999999997
LiTi3V(PO4)6,1.2412999999999998
TiZnSb(PO4)3,1.2415000000000005
Na2CoP2O7,1.2416
Mg6CoNiO8,1.2418000000000005
Na2CuSbS3,1.2419000000000002
SbXe2OF15,1.2419000000000002
MgCr2(BiO4)2,1.242
NaIn3S5,1.2428
ReNCl4O3,1.2429
Ba9(TaN6)2,1.2429
Na2SnTeO6,1.2432999999999996
Y(FeO2)3,1.2435999999999998
Na10Ca2Si7Ge6S5O48,1.2438000000000002
LiVTe2WO12,1.2441
K8NbSnAs5,1.2448
Gd3CuSnS7,1.2451
Na2Ca3Sn(SO4)6,1.2453
Ba2Na2U(S2O)2,1.2453
Pd(PbCl3)2,1.2453000000000003
Lu2MgSe4,1.2453000000000003
ZnCrSF5,1.2454999999999998
ZnCrF6,1.2459
Na2CaSn3P4(SO12)2,1.2463999999999995
Rb4Mg(FeO2)4,1.2465000000000002
Ba3VO5,1.2467
ZrPbS3,1.2470999999999997
Zn2Sn3O8,1.2476000000000005
LiNb(TeO4)3,1.2479999999999998
Na6Ca4Si3Sn4(S3O16)3,1.2485000000000002
Na2MgSiSn(SO6)2,1.2487
LiFe8(OF)8,1.2492
NbTlBr4O,1.2501
Mo2WS6,1.2505
ScCdCu3Se4,1.2505000000000002
LiCoSbO4,1.2510999999999997
VAg2O3F,1.2511
Na6Ca4Nb20Si21(S5O48)3,1.2512
LiMn2V4O8,1.2514000000000003
Rb2PtS2,1.2521
VPO5,1.2521000000000002
NdEu2TaO6,1.2522000000000002
Na3Np(HO3)2,1.2524
LiAlB14,1.2527
Er2HfS5,1.2528999999999997
FeSb3Pb4O13,1.253
MgCd2(BiO3)2,1.2532
MgMo3S4,1.2532999999999994
SrAgSF,1.2533
MgCo2(GeO3)4,1.2533999999999998
CdO2,1.2535000000000005
Mn2V3O12,1.2537
BaHfN2,1.2537000000000005
LiSc4(FeO3)4,1.2540000000000004
PrSF,1.2541000000000002
Sr2NbCoO6,1.2556000000000005
WS2,1.2557
VCl2,1.2559999999999998
Na7Zn2SiGe2P5O24,1.2563
WS9Cl4,1.2564
KIn5S8,1.2568
Na2Mg2Ti6Si3(S3O16)3,1.2569
Na2GdMnAs2O9,1.257
Te2N2O7,1.2571
AgAu(IO3)4,1.2573
Cr2HgO4,1.2575000000000005
Li3VF5,1.2582
CaSm4(Mo2O7)2,1.2584999999999995
Li3Ni2SbO6,1.2584999999999995
TbSF,1.2587000000000002
KBaPSe4,1.2588
Na6ZnSi4Ge3(SO12)2,1.2593
MgV2(PO5)2,1.2593
Tl2Br3,1.2594
Li4Ti(TeO4)3,1.2599
Mg14MnVO16,1.2600999999999996
Sr5Hf2N6,1.2601
MgV6(HO3)6,1.2603
Tl2TeS3,1.2603000000000004
La6S4N3Cl,1.2603999999999995
Rb2PbCl6,1.2605
LiP3N2O11,1.2607
YTlSe2,1.2608
Na10Y4Si7Sn4S5O48,1.2611
LiMnCO3F2,1.2612
MgV28O70,1.2612
CsSiTe3,1.2613
ZnCr3P3O13,1.2613
Zn3Si3(MoO6)2,1.2614
Th4Mg(B2O5)4,1.2617000000000005
PrTlSe2,1.2621000000000002
NaFe11O17,1.2633
BaGdInWO6,1.2633000000000003
RbIn5S8,1.2633000000000003
Rb2TcCl6,1.2635
Sm2VFeO6,1.2635000000000003
Na2Ca2Ti2SiS5O24,1.2636000000000005
MgCr2(WO4)2,1.2645
Ba2SnSe4,1.2645999999999995
KNdTe2,1.2648
Rb2P2Pd,1.2653
NdBi2IO4,1.2653999999999996
Na3VAsCO7,1.2654999999999994
Na2CaSi2Ge3(SO6)4,1.2657999999999998
Na2Sc4Si3Ge4(S3O16)3,1.2660000000000002
Na18Ca8Ta4Si9(SO8)9,1.2664999999999995
Ti3Mn5O16,1.2668
Pm2MgS4,1.2669
Nb3(BiO3)5,1.2672
KMgSb,1.2672
Na3Ca3GePS5O24,1.2679
Cs2MnCl4,1.2688
LiCuF2,1.2691
BaAgSeF,1.2693
Rb2LiMoBr6,1.2695
Cs2SiP2,1.2699000000000005
V3As2O9,1.2701000000000002
BaHo2CoO5,1.2706999999999995
Rb2AlCuF6,1.2712999999999997
Pd(PbBr3)2,1.272
RbLiMg14O15,1.2721
NaCuO,1.2722000000000002
Na10Mg4Nb4Si7S5O48,1.2723
Ti4FeBi3O14,1.2725999999999995
LiLaNb4O12,1.2726
ThSe3,1.2728000000000002
Ba4PdO6,1.273
Ta4Cu2O11,1.2731
Na3CaGe(PO4)3,1.2731
ZnO2,1.2744
YV3O6,1.2744999999999995