formula,band_gap
Na3Zn2Ge2P3(SO8)3,2.6622000000000003
KPrHfZrO6,2.6627
Na2GeTeO6,2.6629
Mg3ReH7,2.6637
Nd3Si2S8Br,2.664
Nd2MoO6,2.6647
Li6FeNiP2(CO7)2,2.6653999999999995
VNi3AsO8,2.6658000000000004
Na4Cd3H2(C2O7)2,2.6660000000000004
Tc2O7,2.6664
Rb2AgBr3,2.6666
Sm4ZrO8,2.6672
Na4Nb2Si5Sn2SO24,2.6681000000000004
SrMg(SbO3)2,2.6685
SmBiW2O9,2.6689000000000003
Nd6S3(OF4)2,2.669
Na3LaTaSi2PO12,2.6693
SmCrGeO5,2.6697
Na6ScNb3(SiO4)6,2.6699
Rb2SbN2(O2F)3,2.6704
TlHgCl3,2.6710000000000003
SbS2NF6,2.6713
Rb2LiFe(MoO4)3,2.6718
Ca3In2(GeO4)3,2.6718
Li9Nd2(PS4)5,2.6719
NaCa2IO6,2.6722
VTeH11(NO4)2,2.6724
Sb2BrF15,2.6729
Hf3Ti2(PbO3)5,2.6732
Y3Ge6N11,2.6735
Sn(WO4)2,2.6737
VP(HO)9,2.6738
Nd2Sn2O7,2.6738000000000004
Sm3SbO7,2.6738000000000004
Sb8Br2O11,2.6741
Na3InSn3(PO4)6,2.6745
TePbO3,2.6752
CsFe(SO4)2,2.6754
Na2YTaSi(PO6)2,2.6756
CsCrP2O7,2.6766
Li3Sb3(PO4)4,2.6768
Sr3Nb2ZnO9,2.6769
Rb3MnBr5,2.677
Nd2Th2O7,2.6771
Na8Y3NbSi5SO24,2.6772
Sr10P6O25,2.6772000000000005
NaLi4(H2N)5,2.6774
Ta2H36C12N6Cl2O,2.6784
Rb2PrAgF6,2.6788
Na4MoO5,2.6791
Na3Mg4Ta8P15(SO24)3,2.6794
V2Zn3TeO10,2.6796
Pr3Si2S8Br,2.6796
FeB4O7,2.6798
NaTa3O8,2.68
NaTaCl6,2.6804
Nd2NbInO7,2.6804
Cd(BiO2)2,2.6804
Na7Ca2Ta2Si3(PO8)3,2.6806
Ba3Nb2NiO9,2.6808
Sb3ClO4,2.6812
Na6Si5Sn4SO24,2.6812
NaCr2In(H2O5)2,2.6817
NbAlP2SO12,2.6818
Zn3Cr2(SiO4)3,2.6819999999999995
Na2Ta5Al3(PO4)12,2.6824
MgV2Pb(OF4)2,2.6827
NaHf3Nb(PO4)6,2.6832000000000003
TcC5ClO5,2.6834
FeRe2(H2O3)4,2.6838
Sr3MgPtO6,2.6841000000000004
Na3Ca4Ta8P15(SO24)3,2.6842
Ni3H2Se3O10,2.6843000000000004
SrV2TeO8,2.6844
Sr2Nb2O7,2.6844
Mg8B5IN10,2.6847
Li6Co(SiO4)2,2.6850000000000005
PrMoClO4,2.6854
Ga4B2O9,2.6855
Na8Y2Si5Sn2SO24,2.6857
Na6ZrZn3Si2(SO6)4,2.6861
XeF2,2.6861999999999995
NaAlSiSn(SO6)2,2.6864
K2Cu(Si2O5)2,2.6867
KLaSiS4,2.6869
Na14Mg4Ga4Si5S7O48,2.6872
Na2ZnGeO4,2.6874
KCrO3F,2.6876
TbCrTeO6,2.6885
Sr(GaS2)2,2.6885000000000003
V3Bi(PbO4)3,2.6886
Na42Ta16Zn8Si33(SO48)3,2.689
Pr5Te7WCl3O23,2.6893
BaLi4NiO4,2.6893
La3TaTi2O11,2.6893
Na4NbAl(SiO4)3,2.6896
Na3NiBSO7,2.6897999999999995
Sm3Ta17O47,2.6899
Na7Ti2Ga2Si3(PO8)3,2.6901
SbBrF8,2.6902
NaTiPCO7,2.6902
Na21Ca4Ta8Si15(PO24)3,2.6903
Na4Ta3InSi5SO24,2.6904
Li2MnNi(PO4)2,2.6905
Na9Mg5NbP6(SO12)3,2.6906000000000003
Na3FeBSO7,2.6907000000000005
Na6Si5Sn2Ge2SO24,2.6911000000000005
ZnMoF5,2.6912
Ba6ZrO8,2.6918
MgCr4FeO8,2.692
ReBi3O8,2.6921
LiClO2,2.6926
SrMo2(AsO6)2,2.6928
PrSCl,2.6929000000000003
Gd(BO2)3,2.693
LaAsO3,2.693
Sm2SiSeO4,2.6930000000000005
Sb3TeClO6,2.6933
Na10Nb4Si11Sn4SO48,2.6935
KHg2S(ClO)3,2.6937
Pb(IO3)2,2.6939000000000006
YVO4,2.694
NbGa(PbO3)2,2.6941000000000006
Na7Hf3Nb(SiO4)6,2.6942000000000004
MoSO6,2.6943
Cs2Zn3S4,2.6945
Si4Mo2P4O23,2.6946
Rb(CO)2,2.6948000000000003
SmCrTeO6,2.6949
Mn4SiTeBr2O7,2.6949
Na12Ta4Zn2(SiO4)9,2.695
Na2TeW2O9,2.6950000000000003
GaClO,2.6954
Tm2S2O,2.6958
K2ZnCr2(H2O5)2,2.696
Na4Zr2In2Si3(SO8)3,2.6960999999999995
Na2Ti2Si2SO12,2.6968
Zn3(BO3)2,2.6968
RbYMnWO6,2.6968
Na3CeF7,2.6973000000000003
SmMnSe2ClO6,2.6978
NaV2Bi3O10,2.6981
Gd2O3,2.6983
Na21Ca8Ta4Si3(P5O24)3,2.6983999999999995
Sn5(PO5)2,2.6985
Mg30MnZnO32,2.6988000000000003
Sb3S2XeN(O2F9)2,2.6994
Y4Ti6Bi2O21,2.6999
Ca4Te5O14,2.7
RbVOF3,2.7001
CsHg5Cl11,2.7002
Na7Ti4Si5PO24,2.7003000000000004
Y2Zr2O7,2.7008
Na2Si2Ge2SO12,2.701
Li5Cr(P2O7)2,2.7011
P2W2O11,2.7011000000000003
Na6Ta4Zn2Si3(PO6)6,2.7012
GePClO2,2.7015
Na6Zn3SnP4(SO12)2,2.7017999999999995
Na6La4Ta4Si7S5O48,2.7024
BaP2(XeF5)4,2.7025
ZnSi4NiO10,2.703
Ta9PO25,2.7033
Na4Sr(Ge2O5)3,2.7036
Na2GeH14S3O7,2.7038
Na5Sc3Sn(PO4)6,2.7047
Na21Mg4Ta8Si15(PO24)3,2.7048
V2Zn3O8,2.7049
MgZn2(AsO4)2,2.705
LiBeH3,2.7052
Li5V(CO3)4,2.7054
Na3Li2Fe5(SiO3)10,2.7055
Na10Y4Ta4Si9(SO16)3,2.7056000000000004
Na7NbSi6(SnO8)3,2.7057
Na2Y3Ta5(PO4)12,2.7063
MgGe4(BiO6)2,2.7064
Li6Fe(OF)3,2.7067
SrMgH4,2.7087
Na6Ti2Si5Ge2SO24,2.709
Pb12Br7ClO8,2.7103
NaCl3,2.7105
Na6Zr4Al4Si5S7O48,2.7107
Na3Ca2Ta2P5SO24,2.7107
NaLi7Fe8(SiO3)16,2.7108
LiCrSi3O8,2.7109
Li7Cr2P7O24,2.7109
Li4TeO5,2.7111
SrMo2Se2O11,2.7115
Na3In2Sn2P5SO24,2.7118
Na7Ti2Si5Ge2PO24,2.7124
NaNi2H3(SeO5)2,2.7127
Li3MnFe2(BO3)3,2.713
TiP2(HO4)2,2.7135
Li2Zn3(Ge3O8)2,2.7137
SrCrP2O7,2.7137
Rb2Mo2H4C4O15,2.7138
K3UO2F5,2.7139
Li4Ni5Te(PO4)6,2.7141
Sr2FeCO3F5,2.7143
NaY2Sc2PS5O24,2.7144000000000004
Na7Mg2Ta2Si3(PO8)3,2.7153
Y2V3(SiO4)3,2.7158
Li2VOF5,2.7158
Te6Mo(OF5)6,2.7158
Rb2TlAsF6,2.7163000000000004
Na8Ti2Al2Si5SO24,2.7176
La6NbGa11O28,2.7176
Na10Hf4Si9Ge4(SO16)3,2.718
Rb2LiTaS4,2.7182
Ti4ZnO9,2.7184
Bi10(MoO8)3,2.7187
NaYTiNbO6F,2.718700000000001
Pb2C(SO3)2,2.7190000000000003
Na3Ca2Ta4(PO4)9,2.7192000000000003
Si7SnN10,2.7199
Y4TiSi2(O3F2)3,2.7199
SrNdNiSbO6,2.7200999999999995
Te6H6S(Cl13O2)2,2.7204
NaCr(SO4)2,2.7205000000000004
HoSI,2.7206
Na3La2Ta2SiP5O24,2.7209000000000003
Na6Mo10O33,2.721
TcSO6F,2.721
NaCaPrSeO6,2.7212
NaNd4I7N2,2.7212
ZnH2SeO5,2.7214
NaNbSn3(PO4)6,2.7217
Ba5(Ga3O7)2,2.7217
Tb2Sn2O7,2.7218
SmTiNbBi2O9,2.722
NaAlGeP2SO12,2.7220999999999997
Na14Mg8Si3(S3O16)3,2.7222
Na3Ti2Si2PO12,2.722700000000001
Na6Co2C4SO16,2.7228000000000003
NbGaP2SO12,2.7232
Ca2WO5,2.7236
RbVH6SeO9,2.7238
LiVP3H8O13,2.7241
BaMg(SbO3)2,2.7242
Ti4Tl2O9,2.7244999999999995
MgV(PO3)4,2.7247
SrH3C3O7,2.7249000000000003
NaLi9Fe10(SiO3)20,2.7254
Tb2Ti2O7,2.7256
TiTe3O8,2.7258
Na2TiSi4O11,2.7261999999999995
TlHg5Cl11,2.7263
Ca9La5Br33,2.7265
Na4AgCl5,2.7265
Li4VFe3(PO4)4,2.7265999999999995
Na3BSbAsO7,2.7266000000000004
Na2CrCoF7,2.7271
NaTaZnP2SO12,2.7271
TlGaF6,2.7277
Sm2Th3O9,2.7281
Na8Mg3Zr(PO4)6,2.7286
Sr2MgH6,2.7286
Sb2XeF12,2.7297
Rb3Nb5P2O19,2.7304
NaAlAs2O7,2.7304000000000004
Li2SnBPO7,2.7307
TmTl(WO4)2,2.7311
LiZnPS4,2.7311999999999994
Pb12BrCl7O8,2.7313999999999994
Pr3SbO7,2.7314000000000003
NaBiF6,2.7315
SBr2O,2.732
Tl4Ni7(PO4)6,2.732
RbMnVO4,2.7323
S3N2O5,2.7323
Li3VB4O9,2.7324
Na7TaZn3(PO4)6,2.7324
Na14Sc4In4Si7S5O48,2.7329
RbCr(SO4)2,2.7331
Na10Nb7Ga(SiO4)12,2.7338
ZnTe(H2N)4,2.7338
PrCrTeO6,2.7341
Li6NiO4,2.7349
Li4V(BO3)2,2.7351
Na6W6Se2O25,2.7351
Sm2Sn2O7,2.7353000000000005
Gd2Mo(SeO4)3,2.7361999999999997
NaTi2Ga5O12,2.7362
Na10Mg3Zr5Si6(SO8)6,2.7363
Na2H6C4O7,2.7364
TiPb(S2O7)3,2.7366
Rb3PS4,2.7368
Na4C2O5,2.7373
Na10Hf4Nb4Si11SO48,2.7375
Na6Al4Ga4Si3(S3O16)3,2.7375
Rb3CoNCl4O3,2.7376
Na6Y4Zr4Si5S7O48,2.7379
S5(IO9)2,2.738
TiP2Cl8O3,2.7383
Sm2TiO5,2.7385
Na10YNb7(SiO4)12,2.7387
KAs4BrO6,2.7387
Nd2Ti2O7,2.7397
TlGa(SeO4)2,2.7398
Na14Ga8Si7S5O48,2.7399
NbSn6OF15,2.7399
LiVMoO6,2.7403
Na14Mg5Sn3(PO4)12,2.7405
LiNb3(Bi2O7)2,2.7406
Pr3Si2S8Cl,2.7409000000000003
MgO,2.7412
ZnCdB2O5,2.7413000000000003
Tl4Fe(CN)6,2.7414
Li6Gd(BO3)3,2.7416
Mn2H2SO6,2.7417
Na3Mg2Ge2P3(SO8)3,2.7421
Na2PtF6,2.7424
Na8Y2Zn2Si3(SO8)3,2.7427
Nd7V2BO17,2.7429
Na5Li3Ti5O14,2.7429999999999994
NaGa(H2N)4,2.7434
Li3Fe2OF5,2.7438
Na8Ti2In2Si5SO24,2.7442
TaHO3,2.7443
Ca3Co(SeO3)4,2.7444
AsXeF7,2.7448
RbTlF4,2.7449
Na9LiFe10(SiO3)20,2.7449000000000003
NaTaAl3P3(SO8)3,2.7449000000000003
RbLiS,2.745
NaI,2.7455000000000003
SiP2H18(C3Br2)2,2.746
Zr3ZnSiS5O24,2.7461
Na2V2NiH4(OF)6,2.7461
LiNb3O8,2.7464
Na3Ta4Zn2(PO4)9,2.7465
ZnH2(SeO4)2,2.7465
MgSbAsO5,2.7467
ZnH4SeO6,2.7471
NaMnF3,2.7474000000000003
Na2TaZn(PO4)3,2.7475
PH10S3N2O,2.7477
PrSBr,2.7479
TbMoClO4,2.748
Na10Nb7Al(SiO4)12,2.7484
YNO4,2.7487000000000004
Ba5Gd8Zn4O21,2.7488
TlCdBr3,2.7489
LiAl(PS3)2,2.749
Na3Co6Ag(P2O7)4,2.75
Mg3Te4O11,2.7501
Y2Sn2O7,2.7501000000000007
NaTaTiSi(PO6)2,2.7504
Na4Cd2Si3O10,2.7505
Sr2BN2Cl,2.7508
TlCr(SO4)2,2.7522
CoH20Se2(NO7)2,2.7534
SiPH18C6INCl,2.7535
Na42Ca8Ta16Si33(SO48)3,2.7536000000000005
NaSrLaWO6,2.754
Na4LaInSi2SO12,2.7542000000000004
Th(InBr3)2,2.7543
Na14Ta2In6Si9(SO16)3,2.7543
SrH6C6S2N2O7,2.7544
Na10TaAl7Si6(SO8)6,2.7544
Rb2Ti(GeO3)3,2.7546
Na14Mg4Zr4Si7S5O48,2.7550000000000003
TaH20C6N3Cl4,2.7556000000000003
Ho3SbO7,2.7558
K3TaS4,2.7558
ScSb(PbO3)2,2.7561
V2PH10C2N2O8F,2.7561
NaYMnWO6,2.7564
Na3NbHO2F7,2.7564
SbXeF7,2.7566
Na3ZrTiSi2PO12,2.7566
MgPb2WO6,2.7567999999999997
MgS,2.7574
Nd5Ti4GaO17,2.7574
Na7La2Ta2Si5PO24,2.7574000000000005
NaCo2HSe2O7,2.7574999999999994
ZnP2(WO5)2,2.7575
Na7Zn3SnP5SO24,2.7578
LiCo2(PO3)5,2.758
LaCrTeO6,2.7585
Sb7(O2F3)3,2.7587
Na6Mg2Ta4Si3(PO6)6,2.7596000000000003
LiCr(MoO4)2,2.76
LiV2(PO3)5,2.76
Rb2MoAs2O9,2.761
ZnSi4As2(H3C)12,2.7613
Na2Cr2H4O9,2.7618
RbV(IO4)2,2.7622
Sm3Si6N11,2.7625
Sn3H28C9IN,2.7628
Na9Ca5NbP6(SO12)3,2.7628000000000004
LiGe2N3,2.7630000000000003
Na4Mg(SiSe3)2,2.7632000000000003
SnSe2(Cl4O)2,2.7633
TlIO3,2.7633
Na10Zr4Si9Ge4(SO16)3,2.7635
MgZrSi2O7,2.763699999999999
Ni3AgP3(HO6)2,2.7641
LiNbSn3(PO4)6,2.7647
Na8Y2Mg2Si3(SO8)3,2.7652
TbNbO4,2.7655000000000003
Na3Ta2Zn2P5SO24,2.7657
NaCaIn(SO4)3,2.7659
Sr2ScGaO5,2.7659
Zn3Si14H90(C15O2)2,2.7662
BaGa2GeS6,2.7663
Sr(GaO2)2,2.7664
Na5Si3Sn2Ge2(PO8)3,2.7665
HS2IO8,2.7665
Ta2Zn2CoO8,2.7667
Os3C8(SO4)2,2.7668
B13H19,2.7669
Li2Zn2W2O9,2.7669
Na3LiFe4(SiO3)8,2.7673999999999994
Pr5Ti4GaO17,2.7675
Na15Mg7Ta5(PO4)18,2.7676000000000003
NaNiPO4,2.7679
TiP4H8N2O13,2.7679
MnAs2F12,2.7681
Na6Zr8Si7S5O48,2.7681
Na14Zr4Ti4Si11SO48,2.7682
NaNdTiNbO6F,2.7682999999999995
Na2InPCO7,2.7683
Li4ScFe3(SiO3)8,2.7686
Na14Hf4Ti4Si11SO48,2.7686
Na10ScNb7(SiO4)12,2.7687
TaP2S2Cl5,2.7692
TlSbWO6,2.7695
Rb6In2Co2Si9O26,2.7696000000000005
Na6Ca2Ta4Si3(PO6)6,2.7699
NaSiSbCO7,2.7702
MnSnH16C6S3O11,2.7708000000000004
Ta7BiO19,2.7719
Na10Nb7In(SiO4)12,2.7723
Na2Ta5Ga3(PO4)12,2.7723
Ni(AsO2)2,2.7724
Na6Zr2Si5Ge2SO24,2.7725
CaCoP2O7,2.7726
NaPrTiNbO6F,2.7726000000000006
V2Pb4O9,2.7733000000000003
Na10Ta4In4Si9(SO16)3,2.7733000000000003
LiFeP2(HO3)2,2.7734
NaTiPO5,2.7735000000000003
Na2Zr4Al4Si3(S3O16)3,2.7738
KLaZnWO6,2.774
MgCr2Sb2(PO4)4,2.7741
NaGa4PS5O24,2.7747
MgAs2WO7,2.7749
LuTl(WO4)2,2.775
NaTiNbSi2SO12,2.7750000000000004
Na2Y4Hf4Si3(S3O16)3,2.776
Na4TaIn3Si3(SO8)3,2.7762
Na2ZrSi2SnSO12,2.7762999999999995
VH10SeNO9,2.7763
ZnAu2(CN)4,2.7763
PrIn2Cl5,2.7765000000000004
CdRe2H8C2S2(NO2)4,2.7768
Na2Mo2Se2O11,2.7772
Na5Cr3F14,2.7773
Li4Ni7(OF7)2,2.7776
LiNbZnO4,2.7777
Li6Sn3P8O29,2.779
MnBiPO5,2.7790000000000004
Na3HfTiSi2PO12,2.779100000000001
Li5P(S2Cl)2,2.7793
Na3CoC2ClO6,2.7796000000000003
LiCaAlN2,2.7797
TlCr(MoO4)2,2.7802
AlZnGaS4,2.7802
MoH6NO3F2,2.7803
Si7PbN10,2.780500000000001
Na6Hf2Si5Sn2SO24,2.7807000000000004
Sr2V3BiO11,2.781
Sm2SeOF2,2.7810000000000006
RbZn4(BO3)3,2.7812
Na21Mg10Ta2P15(SO24)3,2.7815
NiH8(NO5)2,2.7816
Tl2S2O3,2.7817000000000003
SrTi4(PO4)6,2.7819
BiH24C6(I2N)3,2.7823
Mn3Zn9(PO4)8,2.7824
TiBr4,2.7825
SrO2,2.7825
SrCoP2O7,2.7826
NaCaNb2O6F,2.7833
CaInI3,2.7835
Na3B5Se9,2.7845000000000004
LiH2N,2.7848
NaTaIn3P3(SO8)3,2.7852
Rb2TeMo2(PO7)2,2.7858
Na14Y4In4Si7S5O48,2.786
MgTi(BiO3)2,2.7861
NaNbSiGe(PO6)2,2.7862
TlNO3,2.7867
TaTlV2O8,2.7868
Pb(CO2)2,2.7868000000000004
Na4TiSi3SnO12,2.7877
Na3MgGaSi(SO6)2,2.7880000000000003
NdPaO4,2.7881
Na3TiSi2SnPO12,2.7882
Na3BiO3,2.7882
TiZnAs2O7,2.7884
NaHO,2.7884
CaMn(Si2O5)2,2.7892
Na6Zr4Sc4Si5S7O48,2.7892
TlBi(WO4)2,2.7892
TlVH6SO9,2.7893
Na6Y2Ta6Si9(SO16)3,2.7895
TiH3CO5,2.7897
TaOF3,2.7903
SrLa2O4,2.7904
Th(MoO4)2,2.7906
RbYMg30O32,2.7907
V2Pb3O8,2.7908000000000004
NaGaO2,2.7914
V3Pb5O12F,2.7918
NaCa2V3Zn2O12,2.7921000000000005
Na10Zr5Zn3Si6(SO8)6,2.7922
Li2Ti(BO3)2,2.7928
KGdH2C2SO9,2.793
Na2Hf4Zr4Si5S7O48,2.7936
Rb2SrV4O12,2.7936
Cs2AgMoF6,2.7943
Y2Si3N4O3,2.7943
UF6,2.7943
Na2Zn3(SiO4)2,2.7951
Na2ScSn(PO4)3,2.7955
Mn4Si4SnB2(HO9)2,2.7959000000000005
Na10Sc4Ta4Si9(SO16)3,2.7961
Li5Sc2Fe3(SiO3)10,2.7961000000000005
NaSnGe(PO4)3,2.7963
RbReSO3,2.7968
VZn2HO5,2.7972
Cs2NaNF6,2.7974
Na7Al3O8,2.7979000000000003
Na3AlGe3(PO4)6,2.798
NaYGaP(SO6)2,2.798
HfNiO3,2.7983
SrMgV2O7,2.7983
Nb4Pb3(O6F)2,2.7985
MgPS3,2.7986
Rb2Pt(CN)4,2.7987
Zr6Ag7F31,2.799
Rb2LaI5,2.7991
ZnCr4CoO8,2.7994
Nd4Ti9O24,2.7998
LiGdO2,2.8011
AlVO4,2.8012
V2Ni(H4O5)2,2.8013
NaLiV2O6,2.8014
Y2O3,2.8014
Pb3WCl2O5,2.8016
MnPH2CO6,2.8021
Na3La2In2P3(SO8)3,2.8022
Li2CoPHO5,2.8024
Ba4B2N4O,2.8024
MgMnF6,2.8029
KMoCl4O,2.8031
TbCrGeO5,2.8032000000000004
TiTlWO5F,2.8041
Cs2ScInCl6,2.8043
NaZn2CdF7,2.8046
SrLa3MgAlO8,2.8049
Mn2Tl2(MoO4)3,2.8053
Na7Li3V10O30,2.8056
NdIn2Cl5,2.8061
Na2Se2O7,2.8061
SrV2ZnO7,2.8063
CuSn3H27C9NCl,2.8063
Na3Ca2In2PS5O24,2.8066
Y(AgCl2)3,2.8066
NaCa4TaTi4(SiO5)5,2.8068000000000004
Rb2TlSbF6,2.807
Na9Li7V16O48,2.807
Sr2TiP2O9,2.8073
Rb2NiO2,2.8076
Zn2BiPO6,2.8081
NaSc3TaP3(SO8)3,2.8084
Y3SbO7,2.8091000000000004
K2Zr(H2N)6,2.8092
Na4ZrTi(SiO4)3,2.8094
Na6Mg3SnP4(SO12)2,2.8096000000000005
TaP2H27C9Cl2,2.8097000000000003
Tl2Te2O5,2.8109
Ta4SnO12,2.8111
LiGa(H2N)4,2.8113
Na5Li3V8O24,2.8115
SmIn2Cl5,2.8115
Na4YTa3Si5SO24,2.8116000000000003
Na4NiMo6(H19O20)2,2.8117
GdYScSbO7,2.8117
MgTaP(SO6)2,2.8117
Na6Ta6Al2Si9(SO16)3,2.8117
CsXe3O3F13,2.8119
TiTlAsO5,2.812
Rb2ZnGeO4,2.8121
MgTiSiO5,2.8125
MgCrP2O7,2.8126
Lu6TeO12,2.8127000000000004
NdFeGe2O7,2.813
Na2HfSi2GeSO12,2.813
TiP2H4O9,2.8135
NaCaGdWO6,2.8136
NaV4Bi13O30,2.8136
Na10Al4In4Si5S7O48,2.8138
Na3Ca3Ga(SO4)6,2.8141
Na4Hf2Ga2Si3(SO8)3,2.8145
LuScO3,2.8145
Na8Ti2Ga2Si5SO24,2.8145
Na6Ca2Hf6Si5S7O48,2.8149
NaInBr4,2.8149
SrMgFe2(SeO3)4,2.8153
Na2CaHf3Si2(SO6)4,2.8157
NaMg2V3O10,2.8158
Na5Zr2Si3Ge2(PO8)3,2.8163
Na4MgTaSi2PO12,2.8166999999999995
Bi2TeIClO8,2.8168
Rb3Ge2Br7,2.8171000000000004
Na4GeO4,2.8173000000000004
Na8Sc2Si5Ge2SO24,2.8176
Rb3Bi2Br9,2.818
Na3TiNb(SiO4)3,2.8185
Sb4O5F2,2.8185
Na4ScSi2SnPO12,2.8186
SrLaFeSnO6,2.8193
Na4NbGa(SiO4)3,2.8199000000000005
Na10La4Ga4Si5S7O48,2.82
Sb2IrC3O3F13,2.8205
VH10SO10,2.8208
LiNb(OF)2,2.8209
Co(ClO4)2,2.821
LiP3W2O13,2.8212
Na4Ti2(SiO4)3,2.8214
Na6Mg4Ta2Si3(SO6)6,2.8216
WCl2,2.8217000000000003
Rb2CN2,2.8228
NaLa2Ta2P5SO24,2.823
Rb2Ti(WO4)3,2.8232
CaNiSnP2O9,2.823500000000001
Tl2TeMo2(PO7)2,2.8238000000000003
RbAlH4,2.8248
Zr(MoO4)2,2.825
Zr2TiSnO8,2.8254999999999995
VPH7N2O5,2.8255
K3LiTi7O16,2.8256
Tb2Zr8O19,2.8256999999999994
KSrNdWO6,2.8258
CsZn4(BO3)3,2.826
Na2MnCSO7,2.8265
MgTi3O7,2.8266
Lu2WO6,2.8266000000000004
LiIn(MoO4)2,2.827
Na3GaSn3(PO4)6,2.8272
Rb2SiS3,2.8274
Sr(BS2)2,2.8280000000000003
Na14Y6Ta2Si9(SO16)3,2.8281
VP2H13CN3O11,2.8281
Na6La5Ta3(PO4)12,2.8282
Na7Hf2Ti2Si5PO24,2.8283
SnCSNF,2.8283000000000005
SrCaTi2(GeO5)2,2.8285
LiMg30FeO32,2.8286
ZnSnP2O7,2.8288
Na2HfSiGe(PO6)2,2.8291000000000004
Zr2Te4Br2O11,2.8298
Na6Ta6In2Si9(SO16)3,2.8298999999999994
Na2Ca2Hf6Si3(S3O16)3,2.8299
Na3Si3N5,2.8302000000000005
Na3SnPCO7,2.8306000000000004
Rb8(GaH3)5,2.8307
NaCo3P3(HO6)2,2.8308
Cs3TaO8,2.8311
Tb2SeOF2,2.8314
VH17C4S4(O5F3)4,2.8314
Na6TaIn3Si4(SO12)2,2.8314000000000004
AgSbH2C2(NF3)2,2.8326
H4C2NO2,2.8328
Na6Sc2Ta6Si9(SO16)3,2.8328
CaFeF5,2.833
LiCoF3,2.833
Na30Ta20Zn4Si33(SO48)3,2.833
Rb2YInBr6,2.8332
Na9Ta8Zn4Si3(P5O24)3,2.8332
NaNdHf2O6,2.8337
ReSbH4O7,2.834
Sc2Ti2O7,2.834
SrMgCr(PO4)2,2.8341000000000003
TaTi(PO4)3,2.8341000000000003
GdH6C2ClO7,2.8345
KSrGdWO6,2.8355
AlV(TeO4)2,2.8361
SmMoClO4,2.8361
SrLiEuTeO6,2.8365
LiZnSi2H47C17N4,2.8368
RbMoPO6,2.8368
SO2,2.8368
P2W2O9,2.8369
RbIO3,2.8369
NaCaSmWO6,2.8373
K2Co3P4(HO4)4,2.8374
Na10Zr4Nb4Si11SO48,2.8375
VH8N2OF4,2.8379000000000003
Sr4Al6TeO12,2.838
Sr2NbAlO6,2.8384000000000005
Ba3Nb2CdO9,2.8387
SbHC2O5,2.8387
Pr20AlSi19N33Cl2O19,2.8389999999999995
Na3PS3O,2.8392
Hg2H10C3NCl5,2.8393
Na7Ti2Si5Sn2PO24,2.8395
MgTa2O6,2.8397
Na15Ca7Ta5(PO4)18,2.84
Li4WO5,2.8401000000000005
Rb6Ge2O7,2.8402000000000003
FeH18(NO6)3,2.8406
La7V2BO17,2.8406
Na4GaSi2GePO12,2.8409
NaTl3(SO3)2,2.8409000000000004
Cs2RbSbBr6,2.841
NaCa9Ti9Nb(SiO5)10,2.8416
Rb3SbBr6,2.842
SnH8C2I3N,2.8421000000000003
ZnCoTe3O8,2.8426
Na4LiNb5O15,2.8431
KCaYWO6,2.8433
MnSeO3,2.8433
Nd2O5,2.8438000000000003
Na10Y6Ta2Si7S5O48,2.8439
Na9Mg10Ta2P3(S5O24)3,2.8441
Y4TiSn3O14,2.8441
CoH12CN5O6,2.845
Zr3Pb(O2F3)2,2.845
LiSb3(P3O10)2,2.8455
Li3VP2HO8,2.8456
Li2Mn2P2O7F2,2.8466
Cs2TeO4,2.8469
Na12Mg5Ta(PO4)9,2.8469
MgTa4(AsO5)4,2.8471
VZn2P2O9,2.8472
Li5ReN4,2.8473
LiFePH2O5,2.8476
Na21Ta2Zn10P15(SO24)3,2.8476
Ba2LuNbO6,2.8479
Rb2NdAgF6,2.8480000000000003
Na10Zr4Si9Sn4(SO16)3,2.8482000000000003
Na3Ca2Ta10Si3(P5O24)3,2.8485
MgAl2O4,2.8486
BaCaSmNbO6,2.8486
Ba3LaI9,2.8489999999999998
H6PbC3S2IN,2.849
Na14Ca4Zr4Si7S5O48,2.8492
Lu2MgW2(ClO4)2,2.8495
TaSCl7O,2.8496
LiSn2P4H3O16,2.8496999999999995
Nd3S2Br5,2.85
RbBrO4,2.85
Na2Cr(HO)8,2.8506
Na9Ta4Zn2Si6(PO12)3,2.8507
MoSF4,2.8508
Mn2Fe5Si8(HO12)2,2.8509
Na14Ca8Si3(S3O16)3,2.8513
La2Mo2O9,2.8513
SrVSi2O7,2.8515
CaGd4O7,2.8515
ZrNb(PO4)3,2.8515
Na12Ca2Ta4(SiO4)9,2.8515999999999995
Li4Fe2Si3O10,2.8517
Mg30MnNiO32,2.8526
BaCaTbNbO6,2.853
Na7ZnGa3Si3(SO8)3,2.8533
KLiCrO4,2.8534
Ba2ErNbO6,2.8542
Rb2PS3,2.8545
Na2Gd2B2O7,2.8545
NaBi(MoO4)2,2.8545000000000007
Na9Ca4Ta8Si3(P5O24)3,2.8546
Na14Ca4Mg4Si3(S3O16)3,2.8546
SrCaCo(PO4)2,2.8546
Ta2InBiO8,2.8546000000000005
SeCl4,2.855
NaSrPrWO6,2.8551
NaCaYWO6,2.8551
NbAgF6,2.8553
VH3CO5,2.8555
Na6Ca4Ta2Si3(SO6)6,2.8556
Na5Al3Ge(PO4)6,2.8557999999999995
TeH3CCl3,2.8558
SiI4,2.8561
TbBr3,2.8564
TaAlSi(SO6)2,2.8565
NaCaTbWO6,2.8566
Na3Nb2Si3Sn2(PO8)3,2.8566000000000003
MnH8(NF3)2,2.8572
Na7Mg3Ta(PO4)6,2.8572
ZrO2,2.8574
KHfSnSbO6,2.858
Zr4Ti(PbO3)5,2.8584000000000005
SnH12C2(NCl)6,2.8585000000000003
Tl3BiCl6,2.8585000000000003
Na10Hf2Mg6Si3(S3O16)3,2.8591
MgNiSnP2O9,2.8594
Pr2SO2,2.8599999999999994
Ti2Zn2SnO7,2.8603
NaCaDyWO6,2.8610999999999995
TiTl5F9,2.8612
ReBiO5,2.8617
Mn3(PO4)2,2.8617
Na3AlSiGe(PO6)2,2.862
SrCa2Sc6O12,2.8621000000000003
HgH10N2Cl4O,2.8622
XeF4,2.8624
Ta2H4O7,2.8627
NaAsO3,2.8628
W(SO4)2,2.8632
NaPrHf2O6,2.8635
NdAlO3,2.863600000000001
Zn3CrH80S8(NO7)8,2.8637
Sr2Mg3H10,2.8642000000000003
Na15Ta8Zn4Si9(PO8)9,2.8643
Na5HfNb3(SiO4)6,2.8645
LiZnIO4,2.8646000000000003
LiSi6Bi9O26,2.8648
K2LiInCl6,2.865
SrCaTbNbO6,2.865
Na4HfTi(SiO4)3,2.8654
NaMgTaP2SO12,2.8657
Ho2SeOF2,2.8658
TeH18C9S6N3Cl,2.8664
Nd2SO2,2.8667
Li2Cr(CO3)2,2.8669
Te5(O2F11)2,2.867
Na7Mg3SnP5SO24,2.8673
TaP2NCl12,2.8674
KBiN(ClO)3,2.8675
NaY3TaP3(SO8)3,2.8681
Si3PH27C9BrN2,2.8687
BaSrSmNbO6,2.8688
Na8Ga2Si5Sn2SO24,2.869
Sr5Cd5P6(O12F)2,2.8690999999999995
P4S3,2.8693
Na3As3(HO5)2,2.8694
BaSrNdNbO6,2.869800000000001
Na2Cd(SiO3)2,2.87
Na3PH16(SO2)4,2.8701
Li9Cr3P8O29,2.8701
LiCr(CO3)2,2.8702
TcSbH2(OF5)2,2.8702
Na10Mg2Zr6Si7S5O48,2.8706000000000005
Na2Zr(WO4)3,2.8712
Na4TiSi3GeO12,2.8717
Ca3Si4(BiO7)2,2.871900000000001
K2Zn(GeO3)2,2.8725
NaSiSbO5,2.8726000000000003
Na14Mg4Zn4Si3(S3O16)3,2.8728
LiTl2InCl6,2.8728
MnZn(Si2O5)2,2.8729000000000005
Na2SrV4O12,2.873
Li3Ta7O19,2.8734
NaSrSmWO6,2.8736
Na2TeH6SO10,2.8738
Rb2ScAgBr6,2.8738
Ti2ZnSn2O7,2.8744
Na15Ca4Ta8Si9(PO8)9,2.8745000000000003
Na2Ge4O9,2.8749
K2PH4S3O2,2.8749
SrCaYNbO6,2.8753
Sr9La5Br33,2.8755999999999995
NaV3(PbO3)4,2.8762000000000003
BaSrDyNbO6,2.8763
SnP2Cl8O3,2.8778
MgAs2(XeF5)4,2.878
NiBiAsO5,2.8781000000000003
PrAlO3,2.8792
Na14La3Ta5(SiO4)12,2.8792000000000004
SbH12C6(N3Cl2)3,2.8794
Li6P8W3O29,2.88
SCl,2.8804
Na10Ta2In6Si7S5O48,2.8809
LiSn(H2N)3,2.881
Te2SO7,2.8813000000000004
PmBr3,2.8814
Ba2Si5N8,2.8816
Na3SiSn2Ge2P5O24,2.8824000000000005
Na2TaAl3P4(SO12)2,2.8831
Na6Ta4Nb4Si11SO48,2.8833
Y2TiSnO7,2.8833
Re2Sb4O13,2.8834000000000004
Na7NbO6,2.8834000000000004
Sr2SmNbO6,2.8836
SiS2,2.8837
Li3NiPCO7,2.8839
CsTbSiS4,2.8852
V2Ni2PbO8,2.8852
TlCO2,2.8853
Mg2ZnO3,2.8856999999999995
Sr2NdNbO6,2.8862000000000005
SrCa2Lu10O18,2.8863000000000003
LiPWCO7,2.8866
Na3SiSn4P5O24,2.8867
Ti6H2O13,2.8867000000000003
Na2Hf(MoO4)3,2.8868
SrMgSnWO6,2.8871999999999995
LiMoH6NO5,2.8875
MoPbO4,2.8876000000000004
La3TaP2(SO6)4,2.8879
BaTm2O4,2.8879
Sr2PrNbO6,2.888
Na2Dy2B2TeO10,2.8881
Mn3Cr2(SiO4)3,2.8887
SbAsAuF9,2.8888
Rb2AlTlBr6,2.8889
V4Bi6PbO20,2.8891
BaLi2Ti6O14,2.8908
Na6Zn4In4SiS11O48,2.8910000000000005
Na4In2Si2SO12,2.8914
Na2TaTiSi2PO12,2.8919
SrV4(Bi3O10)2,2.8919999999999995
Tm2Te5O13,2.8923
Na14Si11Sn8SO48,2.8924000000000003
Nd4S4Cl2O,2.8925999999999994
Na8La2Zn2Si3(SO8)3,2.8928000000000003
Mo4H8N2O13,2.8931
Ti5(PO5)4,2.8933
Na3Hf2Nb2Si3(PO8)3,2.8936
LiGd6B3O14,2.8936
ScBi3(MoO6)2,2.8937000000000004
Mn6P4H2O17,2.8937000000000004
NaYMg6O8,2.8937000000000004
Ti3AlF15,2.8938
Li3SbO3,2.894
Li2Sn4P4O15,2.8944
MnH4NF3,2.8948
Ti2Si(H2O3)3,2.8953
Zr2Ti(PbO3)3,2.8953
Li4V(PO3)6,2.8955
RbTaCl6,2.8956
YFeF5,2.8958
SrLaAlO4,2.895900000000001
Na2SiSn2(PO6)2,2.8962
Zr3Ti(PbO3)4,2.8966
Sr2DyNbO6,2.8969000000000005
RbCrO3F,2.897
Na9Ta2Zn10P3(S5O24)3,2.8971
Na5MoNO4,2.8972
Xe2NO2F13,2.8973000000000004