formula,band_gap
Th5Pb3,0.0
Th5Sn3,0.0
Th5Tl3,0.0
Th6Cd7,0.0
Th7S12,0.0
Th7Ru3,0.0
Th7Rh3,0.0
Th7Pt3,0.0
Th7Os3,0.0
Th7Ni3,0.0
Th7Ir3,0.0
Th7Co3,0.0
Th6NiBr15,0.0
Th6MnBr15,0.0
Th6Mn23H44,0.0
Th6Mn23,0.0
Th7Fe3,0.0
Th4Fe13Sn5,0.0
Th4Cu6Sn7,0.0
Th3In5,0.0
Th3In13Ni4,0.0
Th3In,0.0
Th3Hg,0.0
Th3Ge2,0.0
Th3Ga2,0.0
Th3Fe33C4,0.0
Th3Co3Sb4,0.0
Th3Cd,0.0
Th3B2C3,0.0
Th3Au4,0.0
Th3Au,0.0
Th3Al2,0.0
Th3Co4Sn13,0.0
Th7Se12,0.0
Th4AlGe,0.0
Th4AgPd,0.0
Th3Zn,0.0
Th3U3P8,0.0
Th3Tl5,0.0
Th3Ti,0.0
Th3Ni3Sn4,0.0
Th3Sn13Os4,0.0
Th3SiGe,0.0
Th3Si2,0.0
Th3Pt5,0.0
Th3Pb,0.0
Th3(Si3Ru)4,0.0
ThBRh3,0.0
ThBi,0.0
ThBi3,0.0
ThBiAu2,0.0
ThBiTe,0.0
ThC2,0.0
ThCd3,0.0
ThCoGe2,0.0
ThCoC2,0.0
ThCo9Si2,0.0
ThCo2Ni3,0.0
ThB4Mo,0.0
ThCo,0.0
ThCdRh2,0.0
ThCdPt2,0.0
ThCdPd2,0.0
ThCdHg2,0.0
ThCdCu2,0.0
ThCl2,0.0
ThB4,0.0
ThB2Ru3,0.0
ThB2Rh2C,0.0
ThAlCu2,0.0
ThAlCo,0.0
ThAl3Ni2,0.0
ThAl3,0.0
ThAl2Ni3,0.0
ThAlIr,0.0
ThAl,0.0
ThAgPO,0.0
ThAgHg2,0.0
ThAl2Co3,0.0
Th8Al4H11,0.0
ThAlNi,0.0
ThAlPt,0.0
ThB2Pt2C,0.0
ThB2Ir3,0.0
ThB2C,0.0
ThB12,0.0
ThAu3,0.0
ThAlPd,0.0
ThAsSe,0.0
ThAsS,0.0
ThAs2,0.0
ThAs,0.0
ThAlRh,0.0
ThAu2,0.0
Th3(SbAs)2,0.0
Th3(OsRu2)2,0.0
Th2ZrUO8,0.0
Th(GeRh)2,0.0
Th(GeRu)2,0.0
Th(Mg4Al3)4,0.0
Th(MnAl2)4,0.0
Th(MnSi)2,0.0
Th(NiGe)2,0.0
Th(NiH)2,0.0
Th(NiP)2,0.0
Th(NiSn)2,0.0
Th(SiAu)2,0.0
Th(SiIr)2,0.0
Th(SiNi)2,0.0
Th14Cu51,0.0
Th14Au51,0.0
Th11(Ru2C3)6,0.0
Th(GePt)2,0.0
Th(SiRh)2,0.0
Th(SiPt)2,0.0
Th(SiOs)2,0.0
Th(SiTc)2,0.0
Th(GePd)2,0.0
Th(GeOs)2,0.0
Th(BRu)2,0.0
Th(BRh)4,0.0
Th(BIr)4,0.0
Th(AlC)4,0.0
Th(BRu)4,0.0
Th(Al2Cu)4,0.0
Th(Al2Cr)4,0.0
Th,0.0
Th(Al2Fe)4,0.0
Th(CoAs)2,0.0
Th(GeIr)2,0.0
Th(GeAu)2,0.0
Th(FeSi)2,0.0
Th(FeGe)2,0.0
Th(Fe2P)2,0.0
Th(CuSn)2,0.0
Th(CuGe)2,0.0
Th(CrSi)2,0.0
Th(CrB3)2,0.0
Th(CoSn)2,0.0
Th(CuSi)2,0.0
Th2(Mo3S4)5,0.0
Th2Pd,0.0
Th2NiC2,0.0
Th2NiB10,0.0
Th2Ni7,0.0
Th2Ni17,0.0
Th2N3,0.0
Th2MnN3,0.0
Th2Mn12P7,0.0
Th2Hg,0.0
Th2Ge3,0.0
Th2MnSi3,0.0
Th2Ge,0.0
Th2S3,0.0
Th2SbTe,0.0
Th2ZnTc,0.0
Th2Zn,0.0
Th2Tl,0.0
Th2SiGe,0.0
Th2SbN2,0.0
Th2Si3Ru,0.0
Th2Si3Pt,0.0
Th2Si3Os,0.0
Th2Si3Ni,0.0
Th2Se3,0.0
Th2Sc(B2C)3,0.0
Th2Si3Rh,0.0
Th2Ga,0.0
Th2CN,0.0
Th2Br5,0.0
Th2BiN2,0.0
Th2B15,0.0
Th2Co17,0.0
Th2Au,0.0
Th2Al8Si2Au5,0.0
Th2Al2C3,0.0
Th2Ag,0.0
Th2AlH4,0.0
Th2FeSi3,0.0
Th2Co7,0.0
Th2CoB10,0.0
Th2Fe7,0.0
Th2Fe2Si2C,0.0
Th2Fe17C,0.0
Th2Fe17,0.0
Th2Fe14B,0.0
Th2CuTc,0.0
Th2CuSi3,0.0
Th2Cu,0.0
Th2CrN3,0.0
Th2CoSi3,0.0
Th2CuTe6,0.0
ThCoH4,0.0
Tb3Sc2S7,0.0
Tb3Se4,0.0
Tb3Si,0.0
Tb3Si2Ni,0.0
Tb3SiBr3,0.0
Tb3Sn7,0.0
Tb3Th,0.0
Tb3Tm,0.0
Tb3U(CoGe)8,0.0
Tb3Y,0.0
Tb4C5,0.0
Tb4BBr6,0.0
Tb3Sc,0.0
Tb4(FeB2)3,0.0
Tb4(Al8Pd3)3,0.0
Tb3Zr,0.0
Tb3ZnAu5,0.0
Tb3Zn,0.0
Tb4(Al8Pt3)3,0.0
Tb3RuO7,0.0
Tb3Ru,0.0
Tb3Ni13B2,0.0
Tb3Ni11Ge4,0.0
Tb3Ni7P5,0.0
Tb3NbO7,0.0
Tb4CdRh,0.0
Tb3NiGe2,0.0
Tb3OsO7,0.0
Tb3Rh2,0.0
Tb3Rh,0.0
Tb3ReB7,0.0
Tb3Pt,0.0
Tb3Pr,0.0
Tb3Pm,0.0
Tb3Pb,0.0
Tb3Mg,0.0
Tb4CeS7,0.0
Tb4CoB13,0.0
Tb4Sb6Rh7,0.0
Tb4Si3Ge,0.0
Tb4Si7,0.0
Tb4YNi10(B2C)5,0.0
Tb5(Ge5Ir2)2,0.0
Tb5(Ge5Rh2)2,0.0
Tb5(In2Ni)2,0.0
Tb5(In2Pd)2,0.0
Tb5(In2Pt)2,0.0
Tb5(ReO6)2,0.0
Tb5(RuO6)2,0.0
Tb5CuBi3,0.0
Tb5CoSb2,0.0
Tb5CoBi2,0.0
Tb5Co19P12,0.0
Tb5Br8,0.0
Tb5BiPt2,0.0
Tb4NiB13,0.0
Tb5Bi3,0.0
Tb5(SiSb)2,0.0
Tb5BiAu2,0.0
Tb4Ni3Bi8,0.0
Tb4Ni13C4,0.0
Tb4Ga12Pt,0.0
Tb4Ga12Pd,0.0
Tb4Ga12Fe,0.0
Tb4Ga12Ag,0.0
Tb4FeSn8,0.0
Tb4Ga21Ni10,0.0
Tb4FeGe8,0.0
Tb4Fe29Si5,0.0
Tb4F15,0.0
Tb4Cu7Sn11,0.0
Tb4Cu5P7,0.0
Tb4Fe34C3,0.0
Tb4Co3,0.0
Tb4MgRu,0.0
Tb4MgRh,0.0
Tb4MgGe4,0.0
Tb4InIr,0.0
Tb4InGe4Rh,0.0
Tb4In5S13,0.0
Tb4HfAl15,0.0
Tb4InRh,0.0
Tb2Si5Os3,0.0
Tb2Si5Rh3,0.0
Tb2Si5Ru3,0.0
Tb2SiGe,0.0
Tb2SmS4,0.0
Tb2Sn5Rh3,0.0
Tb2Ti2Fe22H,0.0
Tb2Ti3Ge4,0.0
Tb2Ti3Si4,0.0
Tb2TiCuO6,0.0
Tb2TlHg,0.0
Tb2Zn17,0.0
Tb2ZnAg,0.0
Tb3(CuSi)4,0.0
Tb3(CuGe)4,0.0
Tb3(CoGe2)2,0.0
Tb3(Co2Sn)4,0.0
Tb3(AlNi3)2,0.0
Tb3(Al3Ru)4,0.0
Tb2Si5Ir3,0.0
Tb3(Al3Os)4,0.0
Tb2ZnSb4,0.0
Tb2ZnNi2,0.0
Tb2ZnCuSi2,0.0
Tb2Si4Mo3,0.0
Tb2NiSb4,0.0
Tb2NiGe6,0.0
Tb2NiB10,0.0
Tb2NiAs2,0.0
Tb2Ni7,0.0
Tb2Ni2Sn,0.0
Tb2Ni22C3,0.0
Tb2Ni17,0.0
Tb2Ni12P7,0.0
Tb3(CuSn)4,0.0
Tb2PdRh,0.0
Tb2Si3Pd,0.0
Tb2Si3Ge,0.0
Tb2Si3,0.0
Tb2Sc3Si4,0.0
Tb2SbO2,0.0
Tb2PdRu,0.0
Tb2Sb5,0.0
Tb2Ru2O7,0.0
Tb2ReC2,0.0
Tb2ReB6,0.0
Tb2Re3Si5,0.0
Tb2Pt,0.0
Tb2RuRh,0.0
Tb3(Ge3Pt2)2,0.0
Tb3(GeRh)2,0.0
Tb3GaC,0.0
Tb3Ga9Pt2,0.0
Tb3Ga8Rh3,0.0
Tb3Ga8Ir3,0.0
Tb3Ga8Au3,0.0
Tb3Ga8Ag3,0.0
Tb3GaCo3,0.0
Tb3Ga5,0.0
Tb3FeSi6,0.0
Tb3FeB7,0.0
Tb3Fe2Si7,0.0
Tb3Eu,0.0
Tb3Ga15Ru4,0.0
Tb3Er,0.0
Tb3In5,0.0
Tb3In,0.0
Tb3Ho,0.0
Tb3Ge13Ir4,0.0
Tb3Ge4,0.0
Tb3Ge3Ru2,0.0
Tb3Ge3Ir2,0.0
Tb3Ge13Rh4,0.0
Tb3Hg,0.0
Tb5CuPb3,0.0
Tb3AlN,0.0
Tb3Al3NiPd2,0.0
Tb3AlNi8,0.0
Tb3Ag,0.0
Tb3(Si3Ru)4,0.0
Tb3(SbPd2)4,0.0
Tb3(MnGe)4,0.0
Tb3(MnC3)2,0.0
Tb3(In3Pt)4,0.0
Tb3B7Mo,0.0
Tb3Cu20Sb11,0.0
Tb3Co6Sn5,0.0
Tb3B7W,0.0
Tb3Co2Ge3,0.0
Tb3Co,0.0
Tb3Bi,0.0
Tb3BCl3,0.0
Tb3Co11B4,0.0
Tb5Ge3B,0.0
TbCdPd2,0.0
TbCdPt2,0.0
TbCe3,0.0
TbCe3O8,0.0
TbCeO4,0.0
TbCl,0.0
TbCo2,0.0
TbCo2B2C,0.0
TbCo2Ni3,0.0
TbCoGe2,0.0
TbCoGe,0.0
TbCoC2,0.0
TbCoC,0.0
TbCdNi4,0.0
TbCo9Si4,0.0
TbCo5,0.0
TbCo4B,0.0
TbCo3P2,0.0
TbCo3B2,0.0
TbCo9Si2,0.0
TbCdHg2,0.0
TbBeCu4,0.0
TbBe13,0.0
TbBRh3,0.0
TbB7Mo3,0.0
TbB6,0.0
TbB4Ru,0.0
TbB2Ru,0.0
TbB2Rh3,0.0
TbB2Rh2C,0.0
TbB4Os,0.0
TbCoSi,0.0
TbBi3,0.0
TbBiPd,0.0
TbCdAu,0.0
TbCdAg2,0.0
TbCd2,0.0
TbCd,0.0
TbC2,0.0
TbBr,0.0
TbBiRh,0.0
TbBiPt,0.0
TbCBr,0.0
TbB2Ir3,0.0
TbCoSi3,0.0
TbErTe2,0.0
TbEu4S5,0.0
TbEuRh2,0.0
TbF4,0.0
TbFe11W,0.0
TbFe2,0.0
TbFe2SiC,0.0
TbFe3,0.0
TbFe4(CuO4)3,0.0
TbFe5P3,0.0
TbGa2,0.0
TbGa,0.0
TbErIr2,0.0
TbFeSb3,0.0
TbFeCu,0.0
TbFeB4,0.0
TbFe6Co5W,0.0
TbFe6(Sn2Ge)2,0.0
TbFeNi4,0.0
TbErIn2,0.0
TbErHg2,0.0
TbEr(TiFe11)2,0.0
TbCuGe,0.0
TbCuAs2,0.0
TbCu5Sn,0.0
TbCu5,0.0
TbCu4Au,0.0
TbCu2Ni3,0.0
TbCu2,0.0
TbCu,0.0
TbCr2Si2C,0.0
TbCoSn,0.0
TbCu4Ag,0.0
TbCoSi2,0.0
TbCuNi4,0.0
TbCuPb,0.0
TbDyIn2,0.0
TbDyHg2,0.0
TbDyC4,0.0
TbDyAl4,0.0
TbDy3Fe8,0.0
TbDy3Al8,0.0
TbCuSn,0.0
TbCuSb2,0.0
TbDy3Co8,0.0
TbB2C,0.0
TbB2,0.0
Tb6Al39Cr8,0.0
Tb6Al39V8,0.0
Tb6Al3Si,0.0
Tb6Al43Cr4,0.0
Tb6Br7,0.0
Tb6Co2Sn,0.0
Tb6CoTe2,0.0
Tb6Cu23,0.0
Tb6Fe23,0.0
Tb6FeBi2,0.0
Tb6FeSb2,0.0
Tb6Ga19Pd3,0.0
Tb6Ga19Pt3,0.0
Tb7Co6Sn23,0.0
Tb6Ti4Al43,0.0
Tb6RuBr10,0.0
Tb6RhBr10,0.0
Tb6OsI10,0.0
Tb5Zr3(Ni4As3)4,0.0
Tb6Ni2Sn,0.0
Tb6IrI10,0.0
Tb6IrBr10,0.0
Tb6In23Pt12,0.0
Tb6GaNi2,0.0
Tb6Mn23,0.0
Tb5Pb3,0.0
Tb5P12Ru19,0.0
Tb5O9,0.0
Tb5NiPb3,0.0
Tb5Pb4,0.0
Tb5Mg24,0.0
Tb5Mg,0.0
Tb5Ir2,0.0
Tb5Ge4,0.0
Tb5Pt3,0.0
Tb5Rh3,0.0
Tb5Sn4,0.0
Tb5Sn3,0.0
Tb5Si4,0.0
Tb5Si3O13,0.0
Tb5Pt4,0.0
Tb5SbPt2,0.0
Tb5SbPd2,0.0
Tb5SbAu2,0.0
Tb5S7,0.0
Tb5Si3,0.0
Tb7MnI12,0.0
TbAlFe2,0.0
TbAlFe,0.0
TbAlCu,0.0
TbAlGa,0.0
TbAlB14,0.0
TbAlAu,0.0
TbAl9(Fe2Si3)2,0.0
TbAl7Fe5,0.0
TbAl7Au3,0.0
TbAlCo4,0.0
TbAlGe,0.0
TbAlNi,0.0
TbAu6,0.0
TbAu3,0.0
TbAu,0.0
TbAs2Au,0.0
TbAlPt,0.0
TbAlPd,0.0
TbAlNi4,0.0
Tb5Ge3,0.0
TbAl3Cu2,0.0
Tb9Ni24Sn49,0.0
Tb9(SbO)5,0.0
Tb8Rh5C12,0.0
Tb8Ni18P11,0.0
Tb8CrTe13Cl,0.0
Tb7O12,0.0
TbAgAs2,0.0
TbAgGe,0.0
TbAl3Ag,0.0
TbAl3,0.0
TbAl2Ni,0.0
TbAl2,0.0
TbAl,0.0
TbAgSn2,0.0
TbAgPb,0.0
TbAgHg2,0.0
ThCoSi3,0.0
Te2W3(SeS)2,0.0
Te2W3S4,0.0
Te2WCl6,0.0
Te3Au,0.0
Te3Au2,0.0
Te3Mo2S,0.0
Te3MoWS,0.0
Te4Mo(WS)2,0.0
Te4As2S5(OF6)2,0.0
Te3Pt2,0.0
Te3Pd10,0.0
Te2MoWSeS,0.0
Te2NO7,0.0
Te2W,0.0
Te2Rh3,0.0
Te2Rh,0.0
Te2Pt,0.0
Te2Pd7,0.0
Te2Pd3,0.0
Te2PO7,0.0
Te2P4H3O16,0.0
Te2Os,0.0
Te2Pd3Pb2,0.0
Te2MoWSe2,0.0
Te4Mo3S2,0.0
Te4MoW3S4,0.0
Te6MoW3S2,0.0
Te6Mo3WS2,0.0
Te4WCl6,0.0
Te4Rh3,0.0
Te4Mo3W(SeS)2,0.0
Te4Mo3,0.0
Te4Mo3WS4,0.0
Te4Mo3WSe4,0.0
Te2MoWS2,0.0
Te2Mo3W(SeS2)2,0.0
Te2Mo3WSe6,0.0
Te2Mo3WS6,0.0
Te2Mo3W(Se2S)2,0.0
Te2Mo3Se4,0.0
Te2Mo3S4,0.0
Te2Mo3(SeS)2,0.0
Te2Mo2WSe4,0.0
Te2MoW2(SeS)2,0.0
Te2MoW3(SeS2)2,0.0
Te7Pd20,0.0
Ti2SN2,0.0
Ti2Sb,0.0
Ti2Sb(PO4)3,0.0
Ti2Se,0.0
Ti2Se3,0.0
Ti2SeN2,0.0
Ti2SiNi3,0.0
Ti2Sn,0.0
Ti2Sn(PO4)3,0.0
Ti2Sn3,0.0
Ti2SnC,0.0
Ti2VIr,0.0
Ti2V3Cr(PO4)6,0.0
Ti2V2GaS8,0.0
Ti2TlC,0.0
Ti2S3,0.0
Ti2TcRu,0.0
Ti2TcPt,0.0
Ti2TcPd,0.0
Ti2TcOs,0.0
Ti2Te2(OF)5,0.0
Ti2S,0.0
Ti2RuRh,0.0
Ti2O3,0.0
Ti2O,0.0
Ti2NiS4,0.0
Ti2NiP5,0.0
Ti2NiMo,0.0
Ti2NiIr,0.0
Ti2NiH,0.0
Ti2VNi9,0.0
Ti2Pd,0.0
Ti2Rh,0.0
Ti2ReTc,0.0
Ti2ReRu,0.0
Ti2ReRh,0.0
Ti2RePt,0.0
Ti2PbC,0.0
Ti2RePd,0.0
Ti2ReOs,0.0
Ti2ReNi,0.0
Ti2ReIr,0.0
Ti2Re,0.0
Ti2Pd3,0.0
Ti2VSe4,0.0
Ti3B4,0.0
Ti3B4Mo,0.0
Ti3B4Mo3,0.0
Ti3Be,0.0
Ti3Bi,0.0
Ti3C2,0.0
Ti3Cd,0.0
Ti3Co(CuS4)2,0.0
Ti3Co2Sb(PO4)6,0.0
Ti3Co5B2,0.0
Ti3CoCu2(PO4)6,0.0
Ti3CoS6,0.0
Ti3Cu3(TeO8)2,0.0
Ti3Cu2P6WO24,0.0
Ti3Cu2NiS8,0.0
Ti3Cu2Ni(PO4)6,0.0
Ti3CrSb2(PO4)6,0.0
Ti3CrCu2(PO4)6,0.0
Ti3Cr2Sn(PO4)6,0.0
Ti3Cr2Ni(PO4)6,0.0
Ti3Cr17Si12,0.0
Ti3CoSn2(PO4)6,0.0
Ti3Cr9Si4,0.0
Ti2ZnS4,0.0
Ti2ZnO4,0.0
Ti2Zn,0.0
Ti2VTe4,0.0
Ti3(Co10B3)2,0.0
Ti3(SeS2)2,0.0
Ti3AlNi12,0.0
Ti3AlN,0.0
Ti3AlC,0.0
Ti3Al5,0.0
Ti3(Ni10B3)2,0.0
Ti3Al,0.0
Ti3Ag,0.0
Ti3(TeSe)2,0.0
Ti3Al2NiC,0.0
Ti2Ni,0.0
Ti2NbNi9,0.0
TeMoWS3,0.0
Ti2CuS4,0.0
Ti2CuRe,0.0
Ti2CuNi,0.0
Ti2CuIr,0.0
TeMo2S3,0.0
TeIrO6,0.0
TeI7,0.0
TeI4,0.0
TeAs,0.0
Te8Rh3,0.0
Te8Pd5Se2,0.0
TeBr6,0.0
TeMo2SeS2,0.0
Ti2Fe,0.0
Ti2MnIr,0.0
Ti2MnFeO6,0.0
Ti2MnFe,0.0
Ti2MnCo,0.0
Ti2MnBe,0.0
Ti2Mn3Fe3O16,0.0
Ti2IrRu,0.0
Ti2IrRh,0.0
Ti2InNi2,0.0
Ti2Mn3V,0.0
Ti2InN,0.0
Ti2MnOs,0.0
Ti2MnRh,0.0
Ti2NbAl,0.0
Ti2Nb2Ni2C,0.0
Ti2Nb2(CuO4)3,0.0
Ti2Nb(PO4)3,0.0
Ti2N,0.0
Ti2MoOs,0.0
Ti2MoIr,0.0
Ti2MnTc,0.0
Ti2MnRu,0.0
Te7As5I,0.0
Ti2FeSe4,0.0
Ti2FeRu,0.0
Ti2FeTc,0.0
Ti2FeCu,0.0
Ti2FeB2RuRh4,0.0
Ti2FeB2Ru3Rh2,0.0
Ti2FeB2Rh5,0.0
Ti2Fe2H3,0.0
Ti2InC,0.0
Ti2GaC,0.0
Ti2HPd,0.0
Ti2HC,0.0
Ti2H3,0.0
Ti2H2Pd,0.0
Ti2H11(N2F3)4,0.0
Ti2GaTc,0.0
Ti2GaRe,0.0
Ti2GaNi,0.0
Ti2GaN,0.0
Ti2GaCo,0.0
Ti2H,0.0
Te2Mo2W(SeS)2,0.0
ThZn4,0.0
ThZnAu2,0.0
ThZnRh2,0.0
ThZr2,0.0
ThZr2H7,0.0
ThZr3,0.0
Ti,0.0
Ti(CrTe2)2,0.0
Ti(CrSi3)2,0.0
Ti(CrSe2)2,0.0
Ti(CrN)4,0.0
Ti(CoO3)2,0.0
Ti(CoO2)2,0.0
Ti(CoGe)6,0.0
ThVB4,0.0
ThUSe2,0.0
ThTl,0.0
ThTeAs,0.0
ThTe,0.0
ThTc2,0.0
ThTl3,0.0
ThSnRh,0.0
ThSnPd2,0.0
ThSiTe,0.0
ThU(CuSi)4,0.0
ThUSb4,0.0
ThUO4,0.0
ThUB8,0.0
ThUAl6,0.0
ThU8O18,0.0
ThU4(Cu4Pd)5,0.0
ThU3Re8,0.0
ThUBe26,0.0
Ti13Pb3,0.0
Ti13S24,0.0
Ti13Sb3,0.0
Ti14O7F60,0.0
Ti15NbO32,0.0
Ti15VO24,0.0
Ti20(Sb3Se)3,0.0
Ti20(Ge3Sb)3,0.0
Ti20(AlSi3)3,0.0
Ti2(SO4)3,0.0
Ti2(PO4)3,0.0
Ti2(Ni7B2)3,0.0
Ti2(InBr3)3,0.0
Ti2(Co7B2)3,0.0
Ti2(CN2)3,0.0
Ti19Se20,0.0
Ti2(Mo3Se4)5,0.0
Ti13Al9Co8,0.0
Ti12Mn5(PO4)18,0.0
Ti12Fe5O32,0.0
Ti(VN)4,0.0
Ti(Si3Mo)2,0.0
Ti(PO3)3,0.0
Ti(VTe2)2,0.0
Ti(NbS2)3,0.0
Ti(MoS2)2,0.0
Ti(Mo3Se4)2,0.0
Ti(MnN)4,0.0
Ti(NbNi4)3,0.0
Ti(FeO2)3,0.0
Ti10(GaSb)3,0.0
Ti10CrSb5,0.0
Ti12AlSi3C8,0.0
Ti11Se4,0.0
Ti11O18,0.0
Ti11O14,0.0
Ti11Ni9Pt4,0.0
Ti11H7O24,0.0
Ti10O13,0.0
Ti10Cu7S20,0.0
Ti11CuP8,0.0
ThSiS,0.0
ThSiRh,0.0
ThH3,0.0
ThHg3,0.0
ThI2,0.0
ThI3,0.0
ThIn,0.0
ThInCu2,0.0
ThMn2,0.0
ThMn12,0.0
ThMgZn2,0.0
ThMgAu2,0.0
ThMg3,0.0
ThIrOs,0.0
ThIr5,0.0
ThIr2,0.0
ThIr,0.0
ThGeSe,0.0
ThGeS,0.0
ThGe2,0.0
ThFe4Co,0.0
ThFe3,0.0
ThFe2SiC,0.0
ThFe2Ni3,0.0
ThFe4Ni,0.0
ThCuPO,0.0
ThCu6,0.0
ThCrSb3,0.0
ThCrB4,0.0
ThCuN2,0.0
ThFe5,0.0
ThFeCo4,0.0
ThGe,0.0
ThGaPt,0.0
ThGaNi,0.0
ThGaIr,0.0
ThGa4Co,0.0
ThGa2,0.0
ThGa,0.0
ThFeNi4,0.0
ThMn2Ni3,0.0
ThMn3Al2,0.0
ThScFe6,0.0
ThSc3,0.0
ThSc2(BRh)12,0.0
ThSc(BRh)8,0.0
ThSc,0.0
ThSe,0.0
ThSbTe,0.0
ThSb,0.0
ThS,0.0
ThRu2,0.0
ThSbSe,0.0
ThRu,0.0
ThSi2,0.0
ThSiPt,0.0
ThSiOs2C,0.0
ThSiGe,0.0
ThSiAu,0.0
ThSi3Rh,0.0
ThSi3Os,0.0
ThSi3Ir,0.0
ThSi2Ru3,0.0
ThSi2Ni,0.0
ThSi3Ru,0.0
ThP2,0.0
ThP,0.0
ThOs2,0.0
ThP7,0.0
ThNi2,0.0
ThMnSe3,0.0
ThMnCo4,0.0
ThMnAl,0.0
ThMn3Ni2,0.0
ThPa3,0.0
ThReB4,0.0
ThRe2SiC,0.0
ThRe2,0.0
ThPt3,0.0
ThPt2,0.0
ThPSe,0.0
ThPt,0.0
ThPd,0.0
ThPb3,0.0
ThPaTc2,0.0
Ti20H2N17,0.0
Tc3B,0.0
Tc3Ge,0.0
Tc3Ir,0.0
Tc3Mo,0.0
Tc3N,0.0
Tc3Ni,0.0
Tc3Os,0.0
Tc3Pd,0.0
TcF6,0.0
TcBr3,0.0
TcB,0.0
Tc6BiO18,0.0
Tc3Rh,0.0
TbYNi4(B2C)2,0.0
TbYIr2,0.0
TbY3Ni8(B2C)4,0.0
TbY3,0.0
TbYRh2,0.0
TbWC2,0.0
TbVB4,0.0
TbUTe4,0.0
TbUTe3,0.0
TbU3(CoGe)8,0.0
TbY2Ni6(B2C)3,0.0
TbYTl2,0.0
TbZn12,0.0
TbZr4O10,0.0
TbZr3,0.0
TbZr,0.0
TbZnSn2,0.0
TbZn,0.0
TbZnSn,0.0
TbZnRh,0.0
TbZnGe,0.0
TbZn3,0.0
TbZnSi,0.0
TcIr,0.0
TcIr3,0.0
Te2Mo(WS2)2,0.0
Te2Mo,0.0
Te2Mo(WS2)3,0.0
Te2Ir,0.0
Te2AuCl,0.0
Te2Mo(WSe2)2,0.0
Te2Au,0.0
TcRh3,0.0
TcRh,0.0
TcPbO3,0.0
TcRu,0.0
TcO2,0.0
TcN,0.0
Te,0.0
Te2(PO4)3,0.0
Te16Rh9,0.0
Te16(Mo3Ru)3,0.0
TcW,0.0
TbTmIr2,0.0
Ti2CS,0.0
Ti2Cd,0.0
Ti2CdC,0.0
Ti2CdO6,0.0
Ti2Co12P7,0.0
Ti2Co3Ge,0.0
Ti2Co3Si,0.0
Ti2CoMo,0.0
Ti2CoNi,0.0
Ti2CoRe,0.0
Ti2CoS4,0.0
TbSbPd,0.0
Ti2Cu,0.0
Ti2CrTe4,0.0
Ti2CrSi6,0.0
Ti2CCl2,0.0
Ti2CrSe4,0.0
Ti2Cr4Si5,0.0
Ti2Cr3Si,0.0
Ti2CoSe4,0.0
Ti2AlMo,0.0
Ti2AlGe3,0.0
Ti2AlFe,0.0
Ti2AlCr,0.0
Ti2AlCo,0.0
Ti2AlC,0.0
Ti27CuP16,0.0
Ti24Pb19,0.0
Ti21Re25,0.0
Ti2Al3Ni,0.0
Ti2AlNi,0.0
Ti2AlO4,0.0
Ti2BeTc,0.0
Ti2B,0.0
Ti2AsP,0.0
Ti2AlV,0.0
Ti2AlTc,0.0
Ti2AlSi3,0.0
Ti2AlRe,0.0
TbSbRh,0.0
TbSc,0.0
TbTc2,0.0
TbSnRh,0.0
TbSnPt2,0.0
TbTe,0.0
TbSnPd,0.0
TbSnIr,0.0
TbSnGe,0.0
TbSnAu2,0.0
TbTlAg2,0.0
TbTiSi,0.0
TbTe2,0.0
TbTiGe,0.0
TbTiFe11N,0.0
TbThRe4,0.0
TbTh3,0.0
TbSn3,0.0
TbSi3Rh,0.0
TbSi3Ni8,0.0
TbSi3Ir,0.0
TbSi2RuRh,0.0
TbSi2Rh3,0.0
TbSi3Rh5,0.0
TbSi2IrRh,0.0
TbSi,0.0
TbSe,0.0
TbScSi2,0.0
TbSmRh2,0.0
TbSmHg2,0.0
TbSm3,0.0
TbSiRu2C,0.0
TbSiRh,0.0
TbSiPt2,0.0
TbSiPt,0.0
TbSiPd2,0.0
TbSiPd,0.0
Tb2Ni12As7,0.0
U2O5,0.0
U2OsC2,0.0
ZrGaPt,0.0
ZrGaRh,0.0
ZrGaRh2,0.0
ZrGe,0.0
ZrGeAs,0.0
ZrGeIr,0.0
ZrGeMo,0.0
ZrGeOs,0.0
ZrGePd,0.0
ZrGeRh,0.0
ZrGeRu,0.0
ZrGeS,0.0
ZrGeSb,0.0
ZrI2,0.0
ZrHCl,0.0
ZrHBr,0.0
ZrH2,0.0
ZrGeTe,0.0
ZrGaNi2,0.0
ZrGaNi,0.0
ZrFeN2,0.0
ZrFeMo,0.0
ZrFeGe2,0.0
ZrFeF6,0.0
ZrFeCo,0.0
ZrFeAs,0.0
ZrFeP,0.0
ZnSnSb2,0.0
ZrFeSi,0.0
ZrGaCo,0.0
ZrGaAu,0.0
ZrGa6(FeCo)3,0.0
ZrGa3,0.0
ZrGa2,0.0
ZrFeSi2,0.0
ZrIn3,0.0
ZrMnP,0.0
ZrMnRh2,0.0
ZrMnSi,0.0
ZrMo2,0.0
ZrMoC2,0.0
ZrMoP,0.0
ZrMoW,0.0
ZrNb,0.0
ZrNb(SiRu)2,0.0
ZrNb2Pd9,0.0
ZrNbO4,0.0
ZrNbN2,0.0
ZrNbFe4,0.0
ZrNbCo4,0.0
ZrNbCN,0.0
ZrNbB2,0.0
ZrNbAl6,0.0
ZrNb3C4,0.0
ZrIr,0.0
ZrInRh2,0.0
ZrInPt2,0.0
ZrInPd2,0.0
ZrInNi2,0.0
ZrInCu2,0.0
ZrInCo2,0.0
ZrIn2,0.0
ZrIr3,0.0
ZrMnGe2,0.0
ZrMnGe,0.0
ZrMnGa,0.0
ZrMnFe,0.0
ZrMn6(GaSn2)2,0.0
ZrMn3,0.0
ZnSnAs2,0.0
ZnFeO3,0.0
ZnFeRh2,0.0
ZnGa3,0.0
ZnGa3N3O,0.0
ZnGaCo2,0.0
ZnGaCuSe3,0.0
ZnGaFeO4,0.0
ZnGaIr2,0.0
ZnGaNO,0.0
ZnGaNi2,0.0
ZnIn3,0.0
ZnHgTe2,0.0
ZnHgSe2,0.0
ZnHg3,0.0
ZnGeRh2,0.0
ZnGeN2,0.0
ZnGeAs2,0.0
ZnFeAs4(Pb2O9)2,0.0
ZnFe5O8,0.0
ZnCuO2,0.0
ZnCuNiP2O9,0.0
ZnCuNi2,0.0
ZnCuHg4As7S12,0.0
ZnCuBiO5,0.0
ZnCuAu2,0.0
ZnCuAs,0.0
ZnCu7(CO5)4,0.0
ZnCuBi2O7,0.0
ZnInPd2,0.0
ZnCuPd2,0.0
ZnFe,0.0
ZnFe4NiO8,0.0
ZnFe4CuO8,0.0
ZnFe4Cu10(SnS4)5,0.0
ZnFe3C,0.0
ZnFe3(SnS4)2,0.0
ZnFe2Cu6(SnS4)3,0.0
ZnFe2(SeO3)4,0.0
ZnFe2(PO5)2,0.0
ZnFe2(PO4)3,0.0
ZnFe(PO4)2,0.0
ZnFe(Mo3S4)4,0.0
ZnInRh2,0.0
ZnIr,0.0
ZnReO4,0.0
ZnReN2,0.0
ZnPt3,0.0
ZnPt,0.0
ZnRh,0.0
ZnPd3,0.0
ZnPd2Au,0.0
ZnPd,0.0
ZnPbO3,0.0
ZnPb3,0.0
ZnRu2W,0.0
ZnSn3,0.0
ZnSiRh2,0.0
ZnRhF6,0.0
ZnSi2Ni3,0.0
ZnSbF6,0.0
ZnSb2(PO5)2,0.0
ZnSb2,0.0
ZnS2(NO2)4,0.0
ZnRuN2,0.0
ZnSiAs2,0.0
ZrNbP,0.0
ZnNi3B2,0.0
ZnNi2P2O9,0.0
ZnNi2Ge,0.0
ZnNi3C,0.0
ZnNi13Ge8,0.0
ZnMoN2,0.0
ZnMoF6,0.0
ZnNi10P3,0.0
ZnNi4,0.0
ZnP4WO12,0.0
ZnP2H4O9,0.0
ZnNiSb,0.0
ZnNi3P3O13,0.0
ZnNiO3,0.0
ZnNiBiP2O9,0.0
ZnNi9Ge2,0.0
ZnNi4O5,0.0
ZrNi,0.0
ZrVNi,0.0
ZrVSi,0.0
ZrVW,0.0
ZrWC2,0.0
ZrZn,0.0
ZrZn16,0.0
ZrZn22,0.0
ZrZn2Ge,0.0
ZrZn3,0.0
ZrZnCo2,0.0
ZrZnCu2,0.0
YNi3Sn2,0.0
YNi3,0.0
YNi2B2C,0.0
YNi2,0.0
YNi,0.0
ZrVMo,0.0
YNbRu2,0.0
ZrZnPt2,0.0
ZrZnPd2,0.0
ZrZnNi4,0.0
ZrZnNi2,0.0
ZrZnIr2,0.0
ZrZnRh2,0.0
ZrVGe,0.0
ZrVFe,0.0
ZrU3Sb5,0.0
ZrTiW4,0.0
ZrTiTe4,0.0
ZrTiSe4,0.0
ZrTiRh,0.0
ZrTiNi2,0.0
ZrTiNi,0.0
ZrTiNb,0.0
ZrTiN2,0.0
ZrTiMo4,0.0
ZrTiPd,0.0
YNi4B,0.0
ZrU9O20,0.0
ZrUAl6,0.0
ZrVCuS4,0.0
ZrVCu,0.0
ZrVCr,0.0
ZrVCo,0.0
ZrUAl4,0.0
ZrUNb,0.0
ZrUS2,0.0
YNi5,0.0
YNiAs,0.0
YReN3,0.0
YRh,0.0
YRh3C,0.0
YRh5,0.0
YRu2,0.0
YS,0.0
YSb,0.0
YSbPd2,0.0
YSc,0.0
YScN2,0.0
YScO2,0.0
YSi3Ni,0.0
YSi3Ir,0.0
YSi3,0.0
YSi2Ru3,0.0
YSi2Rh3,0.0
YSi2Ni,0.0
YSi,0.0
YSe2,0.0
YSe,0.0
YScS2,0.0
YRe2SiC,0.0
YPOs2C,0.0
YOs2,0.0
YNiSn,0.0
YNiP,0.0
YPPt,0.0
YNiO3,0.0
YNiGe2,0.0
YNiBC,0.0
YNiGe3,0.0
YPRu2C,0.0
YPaTc2,0.0
YRe(WO4)2,0.0
YPt3,0.0
YPt2,0.0
YPt,0.0
YPdPb,0.0
YPaRu2,0.0
YPd3,0.0
YPd2Pb,0.0
YPbAu,0.0
YPb3,0.0
YPb2,0.0
ZrTiFe4,0.0
ZrTiF6,0.0
ZrPt8,0.0
ZrRe2,0.0
ZrReSi,0.0
ZrReSi2,0.0
ZrRh,0.0
ZrRh3,0.0
ZrRu,0.0
ZrRu2,0.0
ZrRu3,0.0
ZrRu3C,0.0
ZrS,0.0
ZrScRu2,0.0
ZrScOs2,0.0
ZrScFe4,0.0
ZrScCo2,0.0
ZrSc(NiSn)2,0.0
ZrSbRu2,0.0
ZrSbRu,0.0
ZrSbPd,0.0
ZrSb2,0.0
ZrSb,0.0
ZrSc,0.0
ZrPt,0.0
ZrNiH3,0.0
ZrNiH,0.0
ZrNiGe,0.0
ZrNiF6,0.0
ZrNiBi,0.0
ZrNiSb,0.0
ZrNiAs,0.0
ZrNi4Sn,0.0
ZrNi3,0.0
ZrNi2Sb,0.0
ZrScTc2,0.0
ZrP,0.0
ZrOs2,0.0
ZrPRu,0.0
ZrPRh,0.0
ZrPOs,0.0
ZrP2,0.0
ZrScVNi3,0.0
ZrSi,0.0
ZrTi2,0.0
ZrTi(NiH3)2,0.0
ZrTi(NiH)2,0.0
ZrTi2Ni9,0.0
ZrTe3,0.0
ZrTe2,0.0
ZrTe,0.0
ZrTc2,0.0
ZrTi2O,0.0
ZrTiCo4,0.0
ZrTiC2,0.0
ZrTiB4,0.0
ZrTiAu,0.0
ZrTiAs,0.0
ZrTi4Be5,0.0
ZrTi3As2,0.0
ZrTi3,0.0
ZrNbV,0.0
ZrTaTe4,0.0
ZrTaN2,0.0
ZrSiSe,0.0
ZrSiPt,0.0
ZrSiPd,0.0
ZrSiNi,0.0
ZrSiMo,0.0
ZrSiIr,0.0
ZrSiAs,0.0
ZrSi2,0.0
ZrSiOs,0.0
ZrTaTc2,0.0
ZrSn2,0.0
ZrSnIr,0.0
ZrTaFe4,0.0
ZrTaCr4,0.0
ZrTaCo4,0.0
ZrTaCN,0.0
ZrTaC2,0.0
ZrSn3,0.0
ZrTa(SiRu)2,0.0
ZrSnRh2,0.0
ZrSnPd2,0.0
ZrSnTe,0.0
YSi3Ni5,0.0
ZnCu3P3O13,0.0
ZnCu3H6(ClO3)2,0.0
YHoHg2,0.0
YHoIn2,0.0
YHoIr2,0.0
YHoMg2,0.0
YHoRh2,0.0
YHoRu2,0.0
YHoZn2,0.0
YIn,0.0
YIn2Ni,0.0
YIn2Ni9,0.0
YIn5Co,0.0
YInAg2,0.0
YInRh,0.0
YInPt2,0.0
YInPt,0.0
YInPdAu,0.0
YHoCu2,0.0
YInPd,0.0
YInCu4,0.0
YInCu2,0.0
YInCu,0.0
YInCo2,0.0
YInAu2,0.0
YInAu,0.0
YInNi,0.0
YHoCd2,0.0
YHoC4,0.0
YH3,0.0
YH2C4O9,0.0
YH2,0.0
YHfMg14,0.0
YGePt,0.0
YGePd,0.0
YGeIr,0.0
YGeAu,0.0
YHfMg30O32,0.0
YHoAl2,0.0
YHoAg2,0.0
YHo3,0.0
YHgPd2,0.0
YHg2,0.0
YHg,0.0
YHo,0.0
YGe3,0.0
YIr2,0.0
YMg14Bi,0.0
YMg14Co,0.0
YMg14Cr,0.0
YMg14CrO16,0.0
YMg14Cu,0.0
YMg14Fe,0.0
YMg14Ga,0.0
YMg14Si,0.0
YMg14Ni,0.0
YMg14Nb,0.0
YMg14MnO16,0.0
YMg14AlO16,0.0
YMg14Al,0.0
YLuTh2(BRh)16,0.0
YLuRh2,0.0
YLuMg2,0.0
YLuIr2,0.0
YLuIn2,0.0
YLuCu2,0.0
YLu3,0.0
YLu(BRh)8,0.0
YLuHg2,0.0
YIr3,0.0
YMg,0.0
YMg(NiH)4,0.0
YMg(CoNi)2,0.0
YGe2Pt,0.0
YGe2Pd,0.0
YGe2Ir,0.0
YCu2,0.0
YCu2Bi2(SeO2)2,0.0
YCu3(AgO3)4,0.0
YCu3(BiO3)4,0.0
YCu3(NiO3)4,0.0
YCu3(SbO3)4,0.0
YCu3(WO4)6,0.0
YCu5,0.0
YCu6ClO8,0.0
YCuAs2,0.0
YEr4Al15,0.0
YEr3Fe34,0.0
YEr3,0.0
YEr2Al9,0.0
YEr,0.0
YCuSi2Ni,0.0
YCuSi,0.0
YCuSb2,0.0
YCuPb,0.0
YCuSn,0.0
YCrFe11,0.0
YCr5Fe7,0.0
YCo5P3,0.0
YCo5As3,0.0
YCo5,0.0
YCo4B,0.0
YCo3Ni2,0.0
YCo3B2,0.0
YCo3,0.0
YCo4(CuO4)3,0.0
YErAl2,0.0
YCo9Si2,0.0
YCoB4,0.0
YCr2Si2C,0.0
YCr2O4,0.0
YCr(WO4)2,0.0
YCoSn,0.0
YCoO3,0.0
YCoNi,0.0
YCoGe,0.0
YCoC2,0.0
YErAl4,0.0
YErAl6,0.0
YErCd2,0.0
YGa3NiGe,0.0
YGa3Ni2,0.0
YGa3Cu,0.0
YGa3,0.0
YGa3Ru,0.0
YGa2Ni3,0.0
YGa2Ni,0.0
YGa2,0.0
YGa,0.0
YFeO3,0.0
YFeNi4,0.0
YGa4Ni,0.0
YGa6,0.0
YGe2,0.0
YGaRh2,0.0
YGaRh,0.0
YGaPt,0.0
YGa5Co,0.0
YGaPd,0.0
YGaIr,0.0
YGaI,0.0
YGaCo,0.0
YGaAu2,0.0
YGaAu,0.0
YGaAg,0.0
YFeNi,0.0
YFe11Re,0.0
YFe11Mo,0.0
YErZn2,0.0
YFe12,0.0
YErMg2,0.0
YErNi2,0.0
YFeGe2O7,0.0
YFe2,0.0
YFeCu,0.0
YFeCo,0.0
YFeB4,0.0
YFe6Co5W,0.0
YFe6Co5Re,0.0
YFe5Co5Mo2,0.0
YFe4(CuO4)3,0.0
YFe3F15,0.0
YFe2Bi2(SeO2)2,0.0
YFe5,0.0
ZnCu3NiSe4,0.0
Zn9Ga3Mo2,0.0
ZnAg2P2O9,0.0
ZnAg2SnSe4,0.0
ZnAg3,0.0
ZnAg3P3O13,0.0
ZnAgAs,0.0
ZnAgBiO5,0.0
ZnAgF5,0.0
ZnBi3O7,0.0
ZnBi3,0.0
ZnBi2O5,0.0
ZnBi,0.0
ZnB3Ir4,0.0
Zn9Fe4,0.0
ZnAu4,0.0
ZnAu,0.0
ZnAs4(HO2)8,0.0
ZnAs3OF18,0.0
Zn9Fe21O40,0.0
Zn5CuN4,0.0
Zn5Cr20(GaSe10)4,0.0
Zn5CoN4,0.0
Zn5Co19O32,0.0
Zn5B3Rh7,0.0
Zn5P6(H3O5)6,0.0
Zn53Ni16,0.0
Zn53Co7,0.0
Zn5(BRh2)4,0.0
Zn4P3O13,0.0
Zn4InS6,0.0
Zn5Pd3,0.0
Zn6B5Ir11,0.0
Zn8Fe3N8,0.0
Zn8Cu5,0.0
Zn8Ag5,0.0
Zn7Tc,0.0
Zn7Sb8Ru9,0.0
Zn7Mo,0.0
Zn74Pd21,0.0
Zn6Ni7Ge2,0.0
Zn6HO6,0.0
Zn6B6Ir11,0.0
Zn4FeSe5,0.0
ZnCdAg2,0.0
ZnCr8Cu3Se16,0.0
ZnCrCu3Se4,0.0
ZnCrN2,0.0
ZnCu,0.0
ZnCu(GeO3)2,0.0
ZnCu2,0.0
ZnCu2(BiO4)2,0.0
ZnCu2(PO4)2,0.0
ZnCu2Au,0.0
ZnCu2GeSe4,0.0
ZnCu2GeTe4,0.0
ZnCu3(NiO3)4,0.0
ZnCu3(BiO3)4,0.0
ZnCu2SnSe4,0.0
ZnCu2SnS4,0.0
ZnCu2Sn(SeS)2,0.0
ZnCr4O8,0.0
ZnCr4NiO8,0.0
ZnCoBi2O7,0.0
ZnCo4(CuO4)3,0.0
ZnCo3C,0.0
ZnCo3,0.0
ZnCo2(P2O7)2,0.0
ZnCo2,0.0
ZnCo,0.0
ZnCdPt2,0.0
ZnCo2(PO5)2,0.0
ZnCoN2,0.0
ZnCoO3,0.0
ZnCr4CuSe8,0.0
ZnCr4CdS8,0.0
ZnCr3(SO4)6,0.0
ZnCr2S5,0.0
ZnCr2(PO5)2,0.0
ZnCr(GeO3)2,0.0
Zn4Cu5(TeO6)3,0.0
YMg30BiO32,0.0
YMg30CO32,0.0
YMg30CrO32,0.0
YMg30FeO32,0.0
YMg30MnO32,0.0
YMg30TiO32,0.0
YMg30VO32,0.0
YMg6Cd,0.0
YMg6Al,0.0
YMg5,0.0
YMg2V3S8,0.0
YMg2Ti3S8,0.0
YMg2Sc,0.0
YMg14ZnO16,0.0
YMg14Zn,0.0
YMg14W,0.0
YMg14VO16,0.0
YMg14V,0.0
YMg14TiO16,0.0
YMg2Mn3S8,0.0
YMg2Cu9,0.0
YMg6Cr,0.0
YMn3O6,0.0
YMn2O4,0.0
YMn2,0.0
YMgZn2,0.0
YMgZn,0.0
YMgVS4,0.0
YMgTl,0.0
YMgTiS4,0.0
YMn12,0.0
YMgPd,0.0
YMn6(Sn2Ge)2,0.0
YMnB4,0.0
Zn49Pt29,0.0
Zn3Sn,0.0
Zn3SiNi2,0.0
YMoO3,0.0
YMoC2,0.0
YMnSi,0.0
YMnO3,0.0
YMnNi4,0.0
YMnGe,0.0
YMnFe,0.0
YMgNi4,0.0
YMgIn,0.0
YMg6Ti,0.0
YMg6Sn,0.0
YMg6Sb,0.0