formula,band_gap
LiSbO2,1.6694999999999998
Na4Ca3TiP2(SO6)4,1.6695000000000002
Rb4P2PbSe8,1.6700000000000002
ZnGaPS,1.6700000000000004
LuWO4,1.6702
LiFe5O3F5,1.6707
TaZn2CoO6,1.6709999999999998
Na2YCuBr6,1.6711999999999998
YMg30BO32,1.6712999999999996
Tb3Fe5O12,1.6714000000000002
Na9Nb7Zn5(PO4)18,1.6714999999999998
NaNbS6,1.6715
MgTi(WO4)2,1.6719
Tl5Ag3(PS3)4,1.6724
ZrP2S7,1.673
Mg2SbWO6,1.673
MgCu2SiS4,1.6730999999999998
TiNbCrO6,1.6732
NaTiZnP(SO6)2,1.6735
VClO,1.674
Cs2Pt,1.6743
Fe2H14C8NO12,1.6743
MgUO4,1.6746000000000003
NaLiLa2Ti4O12,1.6749
MgB9N,1.6752999999999991
Zr2Ta2Si3(SO8)3,1.6753
Sr(LaSe2)2,1.6753
Na18Ca8Ta16Si21(S5O48)3,1.6757000000000002
Nd3CuGeS7,1.6757999999999995
CsK2CoO2,1.6757999999999995
IrCl3,1.6759999999999995
NaY2Ge2P3(SO8)3,1.6763
Li5Fe5(NiO6)2,1.6764999999999994
Na2Sn3O7,1.6767000000000003
MoNCl3,1.6768
Li3V(TeO3)4,1.6770999999999998
Re3(SCl)7,1.6775000000000002
SrAu2(SO4)4,1.6783
Li7Mn(O2F)2,1.6784
Na14Ca2Si9Sn6(SO16)3,1.6785000000000003
Na6Nb4In4Si7S5O48,1.6787999999999998
Na2Ti3Zn5(SO4)12,1.6793
Sr2MnWO6,1.6795
MoI2,1.6796000000000002
Sm2Se2O,1.6796999999999995
Na4Ge2Se5,1.6797
Zn3CdS4,1.6798
NaAg(CO2)2,1.6802
Li3Cr2FeO6,1.6802999999999997
BaY2CoO5,1.6802999999999997
Na6CaTi7Si6(SO8)6,1.6803
K4Na2H18Pd(IO10)2,1.6804
K3UH6C5SNO13,1.6805
Y2Zn3N4,1.6805
NaMg14FeO16,1.6805000000000003
AgAsF6,1.6806
UMo4PbO16,1.6815000000000002
NaMgTa3(PO4)6,1.6818
Na3Sr14La3Ti20O60,1.6818
Zn3Co3(AsO4)4,1.6819
Y2MgV2O8,1.6823
Cs2GeSe4,1.6824
Na6Mg3Si2Ge(SO6)4,1.6824999999999997
Na2Fe2F7,1.6826
Tl2SiSe3,1.6828
Ba2NdBiO6,1.6830000000000005
TeAs(IF2)3,1.6832999999999998
VZn(Si2O5)2,1.6839999999999995
Na6In8Si3(S3O16)3,1.6844
Li5BiO4,1.6845
Mg21FeSi12(HO16)3,1.6845999999999997
CsCu3S2,1.6846
Ga8Sb7Se8Cl29,1.6847
MgTi3Pb5WO15,1.6852999999999998
YBiO3,1.6856
YMgCu(WO4)2,1.6856999999999998
NaV2O4F,1.6860000000000002
Na6Ca3Si2Sn(SO6)4,1.6861000000000002
Mg3V6Cd2Cu3PbO24,1.6862
Rb2Sn4S9,1.6863
SbCl2F3,1.6863
MgHAu2F11,1.6864
Pr3ReO8,1.6865000000000006
NbGa3SiS5O24,1.6868000000000003
Na2YCuCl6,1.6871999999999998
NaV(SO4)2,1.6873000000000002
Na10In4Si7Sn4S5O48,1.6874000000000002
Ta2Ti2Si3(SO8)3,1.6877
LiMnAsO4,1.6879000000000004
Sb2H20(Cl4O3)3,1.6880000000000002
SrScCu3Se4,1.6882
KAg2SbS3,1.6882999999999997
Na6Mg6SiSn2S11O48,1.6886
CsAgSb4S7,1.6887
ScNb3Si3(SO8)3,1.6888
Na12Ca10Ta2Si3(S5O24)3,1.6891
Y10U4O27,1.6892999999999998
Tl3AsS4,1.6893000000000002
LiGeRhO4,1.6894999999999998
Nd2CdS4,1.6895999999999995
Mg14MnZnO16,1.6895999999999995
Mg4TiN4,1.6901000000000002
Rb2U3P4H4O19,1.6902
MoP2NCl12,1.691
Na4MgSi2SnSO12,1.6911
Na2MgSn3P4(SO12)2,1.6911999999999998
Zn2CoWO6,1.6911999999999998
SbCl5,1.6912
Rb2InBiCl6,1.6915999999999998
SrMg2N2,1.6917
SrC2,1.6917000000000002
Mg3Fe4(WO4)6,1.6917999999999995
Bi12PbO20,1.6917999999999995
Mn3Sb2(IO)4,1.6919
Rb2Zr2O5,1.692
ZnFe2H28(S2O15)2,1.6923
Na10Mg2Si7Sn6S5O48,1.6924999999999994
Lu2MgV2O8,1.6928
NaTa3ZnSi3(SO8)3,1.6935
Rb7NaSi8,1.6935
Ti(PO3)4,1.6936
SrCaNb4O12,1.6939999999999995
ScI3,1.6942
K4ZnO3,1.6946
Re6Se7Br4,1.6949
W(OF)2,1.6949
Mg30VSiO32,1.6951
SbSe3N2Cl7,1.6951999999999998
Cs2UMoO7,1.6953000000000005
LiNiRhF6,1.6961
NaNb13O33,1.6963
GaCuI4,1.6967
Na3YSiGe(PO6)2,1.6969
SrCaBiSbO6,1.6974
Sc7V9O24,1.6977000000000002
Rb4Au6S5,1.698
Na8Y2Zr2Si5SO24,1.698
MnFeH4O2F5,1.6982
Rb2ScAuF6,1.6982000000000002
Rb3VS4,1.6986
Lu2Pt2O7,1.6988999999999996
Na14Zn2Si9Sn6(SO16)3,1.6989999999999998
Na2ErCuCl6,1.6989999999999998
Na30Mg20Nb4Si9(S3O16)9,1.6991999999999998
Na6Ti7ZnSi6(SO8)6,1.6999
Rb2FeO4,1.7002
Pd(SeCl3)2,1.7002
Nd2ZnPtO6,1.7003
MnV4CoO12,1.7008
Na10Sc4Ti4Si7S5O48,1.7016999999999998
NaTiInSi(SO6)2,1.7024
Na5Y3Ge(PO4)6,1.7028
YAgS2,1.7034000000000002
MgCo2(MoO4)2,1.7036000000000002
Sn8P2O13,1.7037000000000004
CoBi6P2(O7F)2,1.7039999999999995
Sm2ZnPtO6,1.7044
H36Pb3C10(I5N2)2,1.7045
Tb5AgS8,1.7047999999999996
Li6V9(PO4)8,1.7053000000000005
Lu2TeO6,1.7053000000000005
NaH9Rh2C5O12,1.7058999999999995
PAuO4,1.706
Sr2LiCdWO6,1.7062
Li5V3Cr2O10,1.7064
Sc2SiGe2S5O24,1.7067
Na5Y3Si3Ge(SO8)3,1.7069
NaCr2FeO8,1.7069
KHfCu3Se4,1.707
MgScCu3Se4,1.7070000000000003
LiCo(PO3)3,1.7070999999999998
SrNiF6,1.7074
MgZn2O3,1.7077999999999998
Rb4Mg(MoO4)2,1.7079
Sr22Nb10O47,1.7082999999999997
CuH2CS2N,1.7084
Y2Au5F21,1.7087
NaSr3BiO6,1.7088
Na2NiHgF6,1.7089
Tb14(PbSe8)3,1.7091999999999996
MgVO2F,1.7093
LiCrPH2O5,1.7098
PbWO4,1.71
Sb2Te3H2C(NCl9)2,1.71
Sr2V3O9,1.7102
LiVSiCO7,1.7103
Tb6PbSe10,1.7106999999999997
YTi(WO4)2,1.7108000000000003
I3NO9,1.7109
MoH9S2(ClO)4,1.7119
Mo(PO3)4,1.7120000000000002
NaNiIO6,1.7121000000000002
ZnFeO2F5,1.7122
Na2Gd2Ti3O10,1.7123999999999997
NaLaSnP2SO12,1.7124
Rb4Ta2S11,1.7127
SnH16C4(Br3N)2,1.7128
SbCl3F2,1.7134
LiZnFeO3,1.7135999999999996
LiCoNiF6,1.7138999999999998
Sr2NdBiO6,1.7139000000000002
TlIn3S5,1.7139000000000006
Zr9VO20,1.714
Sr3Sc2N4,1.7146999999999997
RbLiV(PO4)2,1.715
La2MgMnO6,1.715
TiCrSO8,1.7157999999999998
Mg2TaWO6,1.7163999999999993
BiPbIO2,1.7164
SrLiVPO6,1.7166999999999994
SnH16Se3N7,1.717
ZnAgPO4,1.7170999999999998
S3(NCl)2,1.7172
Ga4Hg11(PCl4)4,1.7188
HoTlS2O9,1.7191
PrNb3O9,1.7191
Na18Ca4Nb8Si15(SO24)3,1.7191000000000003
Na2Sc3NbSi2(SO6)4,1.7191999999999998
NaHf2Ge2P5SO24,1.7193
Na3CrCl6,1.7196
Te(HO2)2,1.7198000000000002
V4Zn3(PO4)6,1.7203000000000004
MgZnO2,1.7207
MnTeMoO6,1.7211
Sr(AsS2)2,1.7211999999999998
K6U5V2O23,1.7214000000000005
Rb2LiSbI6,1.7214999999999998
Tl2Hg2PdCl8,1.7216000000000002
Na7Mg2Nb2Si3(PO8)3,1.7219
MgV2O6,1.722
Ba2SnSe3F2,1.7221999999999995
Na5Ti2Zn2P5SO24,1.7222
LiCr3(P3O10)2,1.7223
Na6Y4Nb4Si7S5O48,1.7223
Rb2LiRhF6,1.7225
ZrNCl,1.7226999999999997
Ba3Sr5Ti8O24,1.723
RbMn4(AsO4)3,1.723
Na3MoCl6,1.7232
Ni(SbO2)2,1.7233
SbH2C(O2F3)2,1.7239
Na6Nb4Ga4Si7S5O48,1.7243
TaSb3O8,1.7245
SrNd2Ti4O12,1.7245
LiVAsCO7,1.7254
LiV(SiO3)2,1.7254
Mn5As4(HO2)10,1.7254999999999998
Na2LaNbSi(PO6)2,1.7258
LaSeF,1.7260999999999995
Ti2Sn3O10,1.7265999999999997
Li4CrO4,1.7266
Re3Se2Br5,1.727
Na4Ca3SnP2(SO6)4,1.7274999999999998
VZnAsO5,1.7277
Sm2MgMo2(ClO4)2,1.7282000000000002
Sr2GeSe4,1.7283000000000002
Tl2Cr3O12,1.7286
Ce3Th4O14,1.7286
Cu2H12C4Br3N,1.7288
Mn9Al2Si8(HO4)8,1.7298999999999998
Na4ZnSe3,1.7299
CsLaCdTe3,1.7300999999999995
NaSrCeBiO6,1.7302999999999995
LiVP2(HO4)2,1.7303000000000002
Na4Mg3TiP2(SO6)4,1.7312999999999998
LiVCO5,1.7315999999999998
SbBr5F6,1.7316
Na4LaSi2SnPO12,1.7317999999999998
LiBi2BO5,1.731800000000001
V3P4PbO17,1.7321
Na5MgBiO5,1.7321999999999995
MgZn(FeO2)4,1.7325000000000004
Rb2Ag4Pd3(NO2)12,1.7326
RbAu3Se2,1.7326
LiFe2OF5,1.733
YCuS2,1.7330999999999994
Na9NbZn5Si3(SO6)6,1.7331
Ba2DyBiO6,1.7331
Na4NbZnSi2PO12,1.7332999999999998
NaMnAsO4,1.7334999999999998
V2CdP2O9,1.7336
Rb2MnSO4F3,1.7343000000000002
LiNb13O33,1.7345
Na21Nb4Zn8Si3(P5O24)3,1.7345000000000002
TaP4(S2Cl)5,1.7349
LiVFeP2(O4F)2,1.7351
Na7Ca3GeP5SO24,1.7352
RbMnF4,1.7352
Zr15VO32,1.7356000000000005
Na2O2,1.7361
Na6Ca4Ta8Si9(SO8)9,1.7361000000000002
SmCrO3,1.7362000000000002
TlPS3,1.7362000000000002
SrTiO3,1.7362000000000002
Sr2CaV2(Si2O7)2,1.7363000000000004
MnHgC4(SeN)4,1.7364000000000002
Mn2Cr3FeO8,1.7368
Y3CuSiS7,1.7371999999999996
Tb2MgMo2(ClO4)2,1.7374
SrV(PO4)2,1.7375
Mg5(GeN3)2,1.7379999999999995
Na2Ca2Zr2MnFeSi4O17F,1.7381000000000002
Rb6InP3S14,1.7382
Na10Ca4Ta4Si7S5O48,1.7383
Na10Zn6Si3Sn2(S3O16)3,1.7384
Te2Ru4(CO)11,1.7386
RbVP2O7,1.7391
MgV2(FeO2)4,1.7394000000000005
Li2VBO4,1.7394000000000005
ScP2NO8,1.7395
ScGeP(SO6)2,1.7396
Na5GdO4,1.7396000000000005
VZnPO5,1.7397000000000005
Nb2SnO6,1.7399
Na4Zn3SiGeS5O24,1.7401
RbV2SeO7,1.7403000000000002
Sr6Sb6S17,1.7409
NaTaZnSi(SO6)2,1.741
TlAu(CN)2,1.7415000000000005
Mn2Bi3Sb3O14,1.7416999999999998
NaMo3P3O16,1.7417999999999998
Tm2MgMo2(ClO4)2,1.7422
Na4Sn2H26Se6O13,1.7422
K8Li13(FeO4)4,1.7423999999999995
CuBS2,1.7424999999999995
Na2Sc2Ga2SiS5O24,1.7425
NaP7,1.7429
RbGdS2,1.7435
Rb2ScAuBr6,1.7436
Na3CaNbSi(PO6)2,1.7441999999999998
Li3VSiCO7,1.7442000000000002
U(TeO3)3,1.7448000000000006
UTe(PbO4)2,1.745
Er3S2OF3,1.7451
Sr2PrBiO6,1.7451000000000003
Li4Ti3O8,1.7453
TaTiGaO6,1.7455999999999996
Na3YSi3Sn3(SO8)3,1.7457000000000005
Mn2Nb2Zn2O9,1.7460999999999998
Na6ZnSe4,1.7462
Ti11Fe13O36,1.7464
MnVAgO4,1.7464000000000002
Y12Si5S28,1.7466999999999997
CaSnAsO5,1.7467999999999997
Ho2TeS2,1.7469
Er3CuGeS7,1.7469
AgH12C4S5N,1.747
Li4NbFe(TeO6)2,1.7473999999999998
Na4CaTiSi(PO6)2,1.7475
V4(P2O7)3,1.7479
Na10Ti5Zn3(PO4)12,1.7479999999999998
PaInO4,1.7480000000000002
VH10S2(NO4)2,1.7481
Mg(AlC)2,1.7481
H14RhC6NClO4,1.7483999999999995
WCl6,1.7484
Sr6Te6O17,1.7484999999999995
Na12Mg10Ta2Si3(S5O24)3,1.7485
V3Ni2P6WO24,1.7489
PaBr3O,1.749
Y2MgMo2(ClO4)2,1.7493
NaSnAsCO7,1.7495
Li6VFe3(PO4)6,1.7495
Al4Co(BO5)2,1.7495000000000005
Na2La4Ga4SiS11O48,1.7496
Sr(PrSe2)2,1.7496999999999998
Pr(BrO2)3,1.7499000000000002
Na2U2Si(O4F)2,1.75
Na2NbGa3Si2(SO6)4,1.7502000000000002
Na5TiAl3Si3(SO8)3,1.7502999999999995
NaSr8NdTi10O30,1.7506999999999997
SrLa7TiGa7O24,1.7512
Er2Sb2O7,1.7512
La2Mn(SeO)2,1.7513000000000003
Zn3Si4(SbO7)2,1.7516999999999996
Na7SbO6,1.7517
NbVO5,1.752
MgCd2(MoO4)2,1.7521
Li8SeN2,1.7523
La5C2Br9,1.7523999999999995
Sr(NdSe2)2,1.7524000000000002
Si2TeH22Pd(C4Cl)2,1.7525
Zn3Ni7O10,1.7526000000000002
Rb4Ge9(H3N)5,1.7529
Na14Ti6Zn2Si9(SO16)3,1.7531999999999996
LiUNbO6,1.7534000000000003
Mg2V2(SiO4)3,1.7534999999999994
MgCrFeO4,1.7536
MnAlSiO5,1.7544000000000004
LiNi4O4F,1.7546999999999997
Na5Ca3SnP3(SO8)3,1.7547
TaCu3(SeS)2,1.7547
K5Nb(CN)8,1.7548
Pd(SCl3)2,1.7553
ZnPbF6,1.7555
Li5MnF8,1.7564
MgNb2(CoO4)2,1.7564000000000002
ScMn(BiO3)2,1.7565
U(OF)2,1.7567
Na2Ca3Zr(SO4)6,1.7567999999999997
Na3Zn3GePS5O24,1.757
SbXeF11,1.7571999999999997
MgNi2(BiO3)2,1.7572
Ba(TbS2)2,1.7572000000000003
Sm2CdS4,1.7573999999999996
Rb2ZnO2,1.7574999999999998
TiNb(BiO3)3,1.7575000000000005
TlGeS2,1.7578999999999998
Na5AgGe2S7,1.7581999999999998
Li4NiSn3(PO4)4,1.7584
Ba2YBiO6,1.7584999999999995
Li9V12Te7O48,1.7585
Nd3CuSnS7,1.7587000000000002
V3(PO4)2,1.7588999999999997
Ba2H6Pt,1.7589
RbV2I3O13,1.7589
TlBS2,1.7590000000000003
Ho3CuGeS7,1.7592
Li7IN2,1.7593
Na6CaTi3Si4(SO12)2,1.7594
Pr2SiTeO4,1.7596000000000007
Rb2O2,1.7600000000000002
UTe2PbO8,1.7605999999999995
MgSe,1.7609
Cs2Tm2Mg(WO4)4,1.761
Mn4OF6,1.7613
Sm2Au5F21,1.7613
Na3CaSn3P5SO24,1.7614
Na2SrLiVP2O9,1.7614999999999998
SrTe,1.7616
TlAuCl4,1.7616999999999998
NaGdS2,1.762
Sr6Mg(W2O9)2,1.7620999999999998
UP2H2CO7,1.7621
MgV2(CoO4)2,1.7623999999999995
Na10Ti6Zn2Si7S5O48,1.7628
Sr2CeSiO6,1.763
Sr2NbBiO6,1.7631999999999994
Zn2As2O7,1.7632
LiV2F9,1.7635
Er5C2Br9,1.7638000000000005
Os3C8SO8,1.7639
Zn5SeS4,1.7642000000000002
Na7Nb2Zn2Si3(PO8)3,1.7647
Na8Zn3Si3Sn(SO8)3,1.7651
Ti4SnO10,1.7655000000000003
MgCr4(WO6)2,1.7657999999999996
Na21Nb8Zn4Si15(PO24)3,1.7663
UP2(PbO5)2,1.7665999999999995
SrAl7Tl5Si5O24,1.7671
SrLaTiFeO6,1.7674000000000003
ZnAg2(PS3)2,1.7679999999999998
Nb9VO25,1.768
ScCr2Ag(H2O5)2,1.7683
Rb2ReF6,1.7687
LiCrO2,1.7688999999999997
SrPbS2,1.7689
K4U5Te2O21,1.769
Gd3AsO7,1.7693
Na3WN3,1.7694
TbScS3,1.7696
Tl2GeS3,1.7699000000000005
Na5Mg2Ge2P5SO24,1.7700000000000002
RhPb2F7,1.7702
Y9Ga5S21,1.7704999999999995
MgGe4(MoO6)2,1.7705000000000002
LiAg2(NO2)3,1.7706
Li6Ni3P6WO24,1.7706000000000002
Na3V(BO3)2,1.7706999999999995
Nd3SiAgS7,1.7708999999999997
Nd2PbS4,1.7709
Bi2Pd(SeO3)4,1.7711
Na3TiFe3O8,1.7711000000000006
Na5Ca2Nb2SiP5O24,1.7713
SrV2(P2O7)2,1.7714999999999996
NiSnO3,1.7717
Na4TiZn3P2(SO6)4,1.7720000000000002
Sr3Sc3N5,1.7723
Sm2CoPtO6,1.7723000000000004
Li4Ti3Ni2Sn3O16,1.7728000000000002
NaSr2ReO6,1.773
Sr4TaFeO8,1.7730000000000006
Mn3Ag2(P2O7)2,1.7732
VInO4,1.7734
Nb3GaSi3(SO8)3,1.7734
Sr3MoN4,1.7734000000000003
NaZr3NbSi3(SO8)3,1.7739
Sm3CuGeS7,1.7739000000000005
Na6ZnSi4Sn3(SO12)2,1.7742
Na4CaNbSi2PO12,1.7744
Na12Ca4Nb2Si6(SO12)3,1.7748
Mg2(TeO3)3,1.7748
V5H28C8N13O17,1.775
CdPdF6,1.7751
Na14Zn4Si7Sn4S5O48,1.7753
Na2V3P2O13,1.7762
SrCaTbBiO6,1.7765
Na2S5,1.7772
SrVZn(PO4)2,1.7774
RbLi2(H2N)3,1.7775
Na2AgMoF6,1.7775
Na5Mn3S4(O4F)4,1.7777
Pr3CuSnS7,1.7779999999999996
Li3Mo3P3O17,1.7785000000000002
Na3CaGaSi(SO6)2,1.7786000000000002
MoH8(S2N)2,1.7787
TmAg(PSe3)2,1.7789
YBi(WO4)2,1.779
MgV2ZnO6,1.7794000000000003
ScAuO2,1.7796000000000003
Sr2CaTi3O9,1.7798999999999996
Na15Ta5Zn7Si9(SO8)9,1.7800999999999998
Rb2Pd(NO3)4,1.7806000000000002
Fe4OF8,1.7812
YCr3Se2ClO8,1.7814
LiCrSiO4,1.7818999999999994
SrLaMnWO6,1.7819000000000005
CsPbBr3,1.7819000000000005
TlCr4BiO14,1.782
Na2FeAgF6,1.7821
MgMo2(Pb2O5)2,1.7824999999999998
V2Cd4(TeO5)3,1.7825999999999995
Na2TeS3,1.7828
Sr4Ti3O10,1.7833
Rb2Cd3S4,1.7838
Na4VP2O9,1.7839
IClOF,1.7840000000000005
Na8Mg3Sn(PO4)6,1.7843999999999998
Sr17(Ta5S21)2,1.7845
Nd5Ti4FeO17,1.7847
LiNi5O5F,1.7847999999999995
NaTl2RhF6,1.7848000000000002
V2P2H2O11,1.785
Sr9Zn4(CuO7)2,1.7851
BaAu2(SO4)4,1.7853
NaNbSi3Ge3(SO8)3,1.7855
USiPbO6,1.7855
Rb3NaRe2O9,1.7859
Na5Nb2Zn2SiP5O24,1.7860999999999998
YMn3Se2ClO8,1.7861999999999996
Na2ScAgF6,1.7862
ScAgO2,1.7866000000000002
NaTi2Zn2PS5O24,1.7868999999999997
SbSNCl5,1.7869
MoAsO5,1.787
Na2ZnSn3P4(SO12)2,1.7870999999999997
V3H6CNO7,1.7872
K2Cd3S4,1.7876
LiVP3HO10,1.7877
LiV(OF)2,1.7878
Cu3P8(S2Cl)3,1.7878000000000005
Nd2SiTeO4,1.7878000000000007
Tl4SnS4,1.7881999999999998
TlGaS2,1.7885
TiSi3H30C10(N2Cl)2,1.7889
Na5FeO4,1.7893
Li2FeO2,1.7893
SnH5CN2Cl3,1.7893
NaAu(S2O7)2,1.7895
SrCaVInO6,1.7895000000000003
Ti9SnO20,1.7902
Sr9Mn5Co2O21,1.7903999999999995
VP2PbO8,1.7906000000000004
Ca4CN4,1.7906999999999995
PICl6,1.7907
ZnFeH4O2F5,1.7907
NaVCSO7,1.7907000000000002
Na2PSe3,1.7908000000000002
V2OF7,1.7909000000000002
SmZrNO2,1.791
TaP2Se2Cl5,1.7911
ScCu3PbSe4,1.7912
BaCaMnF7,1.7916
Rb2Cd(PSe3)2,1.7916999999999998
Na6Ta8Zn4Si9(SO8)9,1.7919
Ta2WO8,1.7921
TlBr2,1.7922000000000002
Li3P7,1.7927
NaPrSe2,1.7927
V2Zn3(Si2O7)2,1.793
DyFe5Bi4O15,1.793
Na4V3O8,1.7942999999999998
Li5Fe3(OF5)2,1.7943000000000002
Na3Sr7Ta3Ti7O30,1.7944000000000004
Lu2FeCoO6,1.7945999999999995
Sr2ScBiO6,1.7949000000000002
P3NCl12,1.7955
OsC3I2O3,1.7956
Na3V(H14O11)2,1.7959
VH3(C2O3)2,1.7959
SbXe2F9,1.7960000000000005
Dy2FeSbO7,1.7960000000000005
Rb2PrCuI6,1.7961
Rb2Se,1.7968
Rb3H12N5,1.7968000000000002
SrNbFeSnO6,1.7969999999999997
Sm2FeSbO7,1.7970999999999997
TaTl(CuS2)2,1.7972
TiPb9O11,1.7973
Cr4AgBiO14,1.7973
TePCl9,1.7973
SrV2(PO5)2,1.7973000000000003
Sr2VInO6,1.7975
UTl4C3O11,1.7982999999999998
Na2Al2Ga2SiS5O24,1.7983000000000002
Li4Nb2Cr3Fe3O16,1.7983000000000002
Na14Nb2In6Si9(SO16)3,1.7987000000000002
NaLa2Ga2PS5O24,1.799
CaFeSbAs2O7,1.7991
Na10Ca2Ti6Si7S5O48,1.7993
Tl6SCl4,1.7993999999999994
BaMo4(PO8)2,1.7998000000000005
Na5H29(IO12)2,1.8001
V2PbO6,1.8001999999999998
ZnI2,1.8004
Na3Mg3GePS5O24,1.8004
Dy3CuSiS7,1.800599999999999
YMo3F15,1.8009000000000002
Ga3Bi5Cl12,1.8012
Rb2YCuI6,1.8014
SnF3,1.8014
Na2MgTi3P4(SO12)2,1.8015
NaSmSe2,1.8016
NaSr8LaTi10O30,1.8022
NdMgCu(WO4)2,1.8024
Sr5(TiN3)2,1.8024
TlH12C4S2I3O2,1.8029
Mn2Ni6Te3PbO18,1.8032000000000004
NaGaSiGe(SO6)2,1.8035
ReNClF5,1.8035
Na3FePCO7,1.8038
MgU(MoO4)4,1.8038
Sb3As2S14(IF8)3,1.8039
NbInSi(SO6)2,1.804
Li4V3Ni(PO4)4,1.8040000000000005
Nb3Al(PO4)6,1.8041
LiV2P5O16,1.8042
LiVPHO5,1.8043
BaSr4Ti5O15,1.8048
Pr3SiAgS7,1.8048999999999995
Li4V2Si(PO6)2,1.8049
Na5TiIn3Si3(SO8)3,1.8049
NaGd3Ti2(SbO7)2,1.8053
Mg30BCO32,1.8056
Zn3Cd3(TeO6)2,1.8056
Nb15MoO40F,1.806
SiSnGe(SO6)2,1.8064
Sr6La14Mg7Ti13O60,1.8065
NdI3,1.8067
Ba2GaSbSe5,1.8067
Sr4HfTi3O12,1.8067999999999995
Li3As7(H3N)13,1.8068
AgIO3,1.8069
MnV4NiO12,1.8069
Na2TaIn3Si2(SO6)4,1.8073
NaMg2Ti2PS5O24,1.8074
SrIn2O4,1.808
Sr4IBrN2,1.808
P3W2O13,1.8082
Na3Ni2SbO6,1.8083
SbS2NCl8,1.8083
Na2W4O13,1.8085
Sr2SmBiO6,1.8088
KBaMnO4,1.8093
Na14Zn2Si9Ge6(SO16)3,1.8094
K3AgO2,1.8096
LiLa4Ga2(FeO6)2,1.8097000000000003
Sr2LiReN4,1.8099
Na10Ga4Si7Ge4S5O48,1.8099
Ba2Fe2Se2OF2,1.81
Na6CaSi2Ge3(PO6)4,1.8101
Na6U5V2O23,1.8105
Ba2NdGaS5,1.8105
Na2YNb3Si4(SO12)2,1.8105
TiP2(S4Cl)2,1.8109
Na5CaSiGe3P5O24,1.8111
RbV3O8,1.8112
RbBaMnO4,1.8112
LiH2BrO5,1.8113
SrCePrCoO6,1.8113
Rb2NdCuI6,1.8116
Rb2NaMnO4,1.8116000000000003
BaFe2F7,1.8117
NaTi2Al2P3(SO8)3,1.8119
Rb2NaTlCl6,1.8121
YSeO3,1.8121
Tl6SBr4,1.8121
NaNdSe2,1.8121000000000005
Li4Nb2Fe3Te3O16,1.8121000000000005
Sr(YS2)2,1.8122000000000005
Na2LiLa3Ti6O18,1.8129
Na42Nb16Zn8Si33(SO48)3,1.8129
Si(PbSe2)2,1.8131000000000004
BaGe2O5,1.8132
Li10Mn2V3Cr3O16,1.8132999999999997
Li4V3(FeO6)2,1.8134
Ca10Al6Si13N30,1.8137
K2Nb4Fe2O13,1.814
LiInO2,1.8143
BaSr2In6O12,1.8143
Li3Sb2P5O18,1.8145
Na2Ti4Nb4Si7S5O48,1.8145
RbVSO6,1.8148
WNCl3,1.8151
Na3CaNb5Si6(SO12)3,1.8154
Na3Mo2N5,1.8154
KVS2O9,1.8158
Na3SiTe3,1.8159
Na3Sr4La3Ti10O30,1.8159000000000003
Sr(TbS2)2,1.8161
SbSO4F3,1.8163
K2Sn3(SbS5)2,1.8166
Na3IO,1.8168
Ba2PrGaS5,1.817
Mn5H8SO12,1.8172
Dy4Te3N2,1.8172
NbFe3Ni2(PO4)6,1.8176
KNa2BN2,1.8181
Ta2Tl3Cu3S8,1.8183
Sb24(Cl7F17)5,1.8188
Nd2Si2PbSe8,1.819
SbP2SN3Cl10,1.8198
Na12Mg5Nb(PO4)9,1.8204
PrTl(PSe3)2,1.8205
Li3TiFe3O8,1.8205
Sr5Ti7O19,1.8208
V5(PbO6)2,1.8211000000000004
Zn2(PS3)3,1.8214
Rb8W13O43,1.8216
Al3Bi5Cl12,1.8216
Mg30ZnSiO32,1.8216
ScNb3(PO4)6,1.8216
Pt(SCl3)2,1.8217
SrCaYBiO6,1.8217000000000003
TaIn3Se4,1.8218
Na4Mg(GeSe3)2,1.8221
Ho3CuSiS7,1.8225
CuAs7PS7Br,1.8225
NaYSnP2SO12,1.8225
Ca4PdO6,1.8227
VAg(HO2)2,1.8228
Nb2FeO6,1.8229
Mg14CoNiO16,1.8233
Ba3V2P6(HO4)6,1.8233
SbTe(IF2)3,1.8235
Ti3MnO8,1.8237
Ba2InBrO3,1.8237
Na3AuO3,1.8237
NaV3P2O13,1.8241
Li4VF8,1.8244
V2P2PbO10,1.8245
Sr(ErS2)2,1.8246
Na2Nb3AlSi4(SO12)2,1.8252
Tl3Cd2I7,1.8253
Rb2NbCuS4,1.8253
Pr2NiPtO6,1.8264000000000005
TlCr3O8,1.8267
Sr2HoBiO6,1.8268
Ce7ZrO16,1.8269
Li5Fe5Si7O24,1.8272
Ba3In2MoO9,1.8273
K3GeSe3,1.8279
Zr2Sb2Pb4O13,1.8279000000000003
Cr(Si2O5)2,1.828
SrUO4,1.8282
V(Bi5O8)5,1.8282
HfFeO3,1.8282000000000005
SrLiTi4CrO11,1.8287000000000004
TaTiCrO6,1.8289
As2Pb4S6ICl,1.829
Na10Ca3Ti5(PO4)12,1.8293
SmCu(MoO4)2,1.8293
BaSr3Lu2(BiO6)2,1.8294
Na2CaTiP2SO12,1.8294
Ce5Zr3O16,1.8294999999999997
Ga2O3,1.8296
CsCu2Cl3,1.8299
Na3MnO4,1.8301
BaTi2O5,1.8301000000000005
Na2Ga8SiS11O48,1.8304
Pr2Si2PbSe8,1.8305
Na6Ti4Si7Ge4S5O48,1.8306
Na4TiZnSi2SO12,1.8309
Cd(AuF6)2,1.8309
RbAgTeS3,1.8309
Tm2PbSe4,1.8312000000000004
DyFeGe2O7,1.8318
Tl4HgBr6,1.832
Rb2AlTlI6,1.8326
Na3P11,1.8326
Mg3CdO4,1.8327
Pr3Fe5O12,1.8327
Mg30ZnSnO32,1.8329999999999995
SbHC2NCl11,1.833
Nd3Fe5O12,1.8330999999999995
Gd2W2O9,1.8332
SnH12Pt(N2Cl3)2,1.834
K3Sb7(SO3)3,1.834
NaMgTiP(SO6)2,1.834
Ti2Sb2O7,1.8340000000000003
NiP2H26C8S4(NO)2,1.8343000000000005
Sr4MgFe4O11,1.8344
KMg30SbO32,1.8345
Li3CrF6,1.8349
VAg2PO6,1.835
NaFe2(PO4)2,1.8351
CeTh2O6,1.8351
Na6Ca3U2O12,1.8352
Mg3Mo2O7,1.8353
MgSn(GeO3)2,1.8365000000000005
Cs4SiTe4,1.8366
Na4Ca2In2SiS5O24,1.8368
UTeO5,1.8368
Fe4Co3(PO4)6,1.8370000000000009
Sr2LiLaTi4O12,1.8370999999999995
Rb2CuBr3,1.8371
Hg3(SF)2,1.8372
Na2CeWO6,1.8375
SrMg6ZnO8,1.8376
RbPS3,1.8376
Na2W2O7,1.8376
NaInS2,1.8377
PrScS3,1.8377
YMgMo(WO4)2,1.8378
TaAlO4,1.8382000000000005
LiV(WO4)2,1.8383000000000005
La3NbSiS5O24,1.8384000000000005
Cs2U4Nb4O23,1.8385
Na6Mg4Ta20Si21(S5O48)3,1.8389
NaTbSe2,1.839
Na4Zn3GeP2(SO6)4,1.839
Na2Y4In4SiS11O48,1.8391
Na2ScCuCl6,1.8393
Pr6Cd(SiS7)2,1.8397
Be(FeO2)2,1.8397
Ag2Pd(NO2)4,1.8404
BiSeCl,1.8404000000000005
Rb5GaO4,1.8405
Sr3Ti2O7,1.8405
Sm3SiAgS7,1.8405000000000005
SnH3S4N4Cl5O,1.8407
Ce2ZrO6,1.8408000000000009
MnPtF6,1.8416
Er2CoTe2(SO7)2,1.8416
KV2CrO7,1.8417
RbNa5(WN3)2,1.8418
UTl2(TeO4)2,1.8419000000000003
Na5Sc3TiSi3(SO8)3,1.842
Na3Nb5ZnSi6(SO12)3,1.842
Y5Be6Fe3(SiO5)6,1.8422
LiNiBO3,1.8427999999999995
Na9Mg11Ta(SO4)18,1.8429
LiMn(PO3)3,1.8432
Na4Ca2Ga2SiS5O24,1.8432
Ca6Te3N2,1.8432999999999995
NaLuTi2O6,1.8433
Ba4In2Te2Se5,1.8433
NaYSe2,1.8434
Sr(TmS2)2,1.8435
CsLiMg30O31,1.8437
Na2LiRhF6,1.8438
LiV4P7O24,1.844
Sr2H4Pd,1.8442
Na2La2Ta2Si3(SO8)3,1.8446
Na3Sr14Nd3Ti20O60,1.8446
Na4Mg3SiSnS5O24,1.8447
Sr8Ga16S31,1.845
Fe7(OF3)3,1.845
Li4NbCr(WO6)2,1.8451
Na3BP2,1.8451
Li3V3(PO4)4,1.8452
Sr2BrN,1.8455
Na3Zn2(WO4)3,1.8465
Os2C6SeO6,1.8468
MgZn2Fe2(SiO5)2,1.847
PrCrO3,1.8470000000000004
Na3TlO2,1.8471
LiSb2(PO4)3,1.8474
Na3InSi3Sn3(SO8)3,1.8475
Na5La2Ga2P5SO24,1.8477
Rb17Fe5O16,1.8478
Na6MgTi3Si4(SO12)2,1.8478
TlH6(NO4)3,1.8483
Y2Cr3O12,1.8489
Sm10S14O,1.85
NbZn2N3,1.8501
Cs5Na(W2N5)2,1.8501
Na2Ta4In4Si5S7O48,1.8501
Ca3Zn3(TeO6)2,1.8504
TaP4S4Cl5,1.8505000000000005
NaTi8(Bi3O10)3,1.8506
Rb2U3(TeO7)2,1.8513