formula,band_gap
LiCa3OsO6,0.2168999999999998
MgFeNiP2O9,0.2168999999999998
K2Zn3SiAs4,0.2170999999999998
Mg3Sb2,0.2172
Cu2BrCl,0.2172
Li(MoO3)3,0.2172999999999998
SnPSe3,0.2173000000000002
Mn3Cu(SeO3)4,0.2175000000000002
Li4Cr3Co(PO4)4,0.2178999999999993
Pr3TiSb5,0.2179999999999999
CrPO5,0.2179999999999999
In2AgSe3Br,0.2180999999999997
Li5V(SiO4)2,0.2182999999999997
Ce2TeMo6(H6O7)6,0.2182999999999997
CaV4(CoO7)2,0.2182999999999999
Li2Cu5(Si2O7)2,0.2186000000000003
BaCa4(CuN2)2,0.2187999999999998
Ho4Ga12Pt,0.2188999999999996
Li3Nb2VO6,0.2189000000000005
MgTi2Cd2O6,0.2189999999999998
RbNiC2BrN2,0.219
Na4Co2O5,0.219
NaCd2(SiO3)3,0.219
GaPH4NO5,0.2191
BaCaPrFeO6,0.2191999999999998
Ba2LaRuO6,0.2196000000000002
Li2Ti2V3O10,0.2196000000000002
Li15Mn15SiO32,0.2196000000000002
CrCuS2,0.2196999999999995
CsEr6CI12,0.2199999999999997
K2AsAuCl6,0.2199999999999999
Ac2MgTl,0.2200000000000006
MnAg2SnS4,0.2200999999999999
Cs3Mo5P6O25,0.2200999999999999
LiV3(CoO6)2,0.2202
Cd2SnO4,0.2204000000000001
Li3Ti2(CoO4)2,0.2206999999999999
Na5V7O14,0.2207999999999996
Na4Hf(S2O9)2,0.2211
NaV13O18,0.2211999999999996
Cs4Cu(SbCl6)2,0.2212999999999998
La9Sb16Br3,0.2214
Li4V2Cr3Sb3O16,0.2214999999999998
BaCaFeBiO6,0.2216
K3Cr11S18,0.2216000000000004
Zr3NbCr4F24,0.2216999999999999
CuSi(HO2)2,0.2218999999999997
Sr2DyFeO6,0.2219000000000002
Li3Ti2Co3O10,0.2219999999999999
Na6Co3B9P6H3O38,0.2221000000000002
Li2TiV5O12,0.2221999999999999
ErC3O8,0.2222000000000001
Ag12Sn7H16(Se11N2)2,0.2222999999999999
Li4Mn3V2Cr3O16,0.2223999999999999
Li6Cr3Sb3O16,0.2223999999999999
UH42C14S7Cl4O7,0.2225
MgMn12Zn6O24,0.2225000000000001
GdSO4F,0.2226
Ga2HgTe4,0.2227000000000001
Ce(PO3)3,0.2227999999999994
Li4Cr2Co3Sb3O16,0.2228000000000003
Ba2Cr2F11,0.2231
TiH8N2F5,0.2231
LiPr2OsO6,0.2232000000000003
MnSb6(Pb2S7)2,0.2232000000000003
Li4Co7O3F13,0.2232999999999999
Na2U2ZnH8(C3O7)4,0.2233
Li4Cr3Co2Sb3O16,0.2233
Li4Nb3V2Co3O16,0.2233999999999998
Sm2Ta2O9,0.2234
In5AgSe8,0.2236000000000002
Li47Cu7N18,0.2238
CePS4,0.2238999999999995
Mn2Be3(SiO4)3,0.2239
ZnAs2,0.2240999999999999
LiCoSiO4,0.2240999999999999
Sr4CuIr2O9,0.2241000000000004
BaEuZr2O6,0.2241999999999997
Li3Co4(BO3)4,0.2242000000000001
K2Mg5Cu3(AsO4)6,0.2242999999999999
Mg149Ti,0.2243999999999997
LiTa2Te4Br10O,0.2246000000000001
Li7Cr2O8,0.2248000000000001
KNa7V8O24,0.2248999999999998
Li7Ti2P7O24,0.2248999999999998
Li6V3W3O16,0.2248999999999998
Na2Li(NiO2)3,0.2254
CrCo3(PO4)4,0.2255000000000002
Ti2Zn3(Si2O7)2,0.2259999999999999
Mg6Bi2PN,0.2260999999999997
LuTlS2O9,0.2260999999999999
TiS3,0.2261000000000006
NiH12C2(SN3)2,0.2262
Mg2CuSbO6,0.2264999999999997
Mn5Zn4(TeO6)3,0.2265000000000001
LiCr2(CO3)4,0.2267
Ce(BOs)4,0.2268999999999996
Li5Cr2O8,0.2269
Sc5IrCl9,0.2269999999999998
ZrTlCuSe3,0.2271
MgTiMn5(PO4)6,0.2271
Ca4Al6WO16,0.2271999999999998
BaSr3(ZrSe3)4,0.2273999999999998
BaMgTiF7,0.2273999999999998
DyCrS3,0.2275
Li4Ti(Co4O9)2,0.2275
Sr2GaReO6,0.2277999999999993
Sr10Fe4Co(MoO6)5,0.2279999999999997
Ba5(RuO5)2,0.2280999999999999
K2BaCu(NO2)6,0.2281
V2CrO7,0.2282
Rb2NbF6,0.2282999999999999
NaGdSiO4,0.2284000000000001
Sr3Nb2CuO9,0.2284000000000001
Li2Cr5O12,0.2285
Pt4SeS3,0.2286999999999999
LiSbSe2,0.2286999999999999
K2MnO4,0.2292
MgCrO3,0.2292999999999998
Al11H2NO17,0.2292999999999998
Ag4Sn3S8,0.2293000000000002
Li2TlBi,0.2293000000000002
Li10V3Cr5O16,0.2293999999999991
Cs2Mg(FeS2)2,0.2294
Li10Fe9CoO20,0.2294
CaZn2(SiO4)2,0.2294
Gd2Br3,0.2294999999999998
PRuSe,0.2295999999999995
Li2Co3WO8,0.2295999999999995
P3H18OsC6(SO)6,0.2296
TiNb2Zn(PbO3)4,0.2296999999999993
ZnCrNiP2O9,0.2301999999999999
ZnCuMo2O7,0.2303999999999999
Tl2GaCu3Se4,0.2307999999999994
Li4Nb3Fe3(SnO8)2,0.2307999999999994
NaSrN,0.2308999999999996
LiV2OF5,0.2308999999999998
Si4SbO10,0.2319
Li5Ni3(SbO5)2,0.2321999999999997
Li12Cr5O16,0.2323999999999997
SrZrN2,0.2324999999999999
Er2Se3,0.2324999999999999
Er3CrS6,0.2327000000000003
CeTl2P2S7,0.2328999999999998
LuN,0.2330999999999998
LiV2CrO6,0.2332999999999998
Rb2LiFe(CN)6,0.2335999999999998
CdCu2Sn3S8,0.2339999999999999
Li4Ti3Mn2Co3O16,0.2339999999999999
EuTmCuS3,0.2340999999999997
CuH10C2(NCl2)2,0.2341
Eu(GaS2)2,0.2343000000000001
Na2Al(P2O7)2,0.2344
MgCu2(IrS2)4,0.2345999999999994
Li2Mn2CuO6,0.2347000000000001
SrCuTe2O7,0.2348999999999996
CoH6(NCl)2,0.2351999999999998
Rb2Mn(PS3)2,0.2352000000000003
Sr2PdO3,0.2353
Na3MnO3,0.2353
Cs2U3P6(HO5)4,0.2355
Ca5Dy3Ti5Mn3O24,0.2355
TbZnAgAs2,0.2359999999999997
Y16B4C8I19,0.2362000000000002
Ba2LaNb(CuO4)2,0.2363999999999997
Mn2FeP2O11,0.2363999999999999
BaUI6,0.2364999999999999
Tb(ZnP)3,0.2365000000000003
Rb2Te5,0.2365000000000003
Ga2Ag2TeSe3,0.2366000000000001
Tl5Te2Br,0.2367999999999996
MnFe3(PO4)4,0.2372
Sr2NdFeO6,0.2372
RbPuP2S7,0.2374
Rh2O3,0.2374999999999998
BiRhSe,0.2379999999999995
Mg149Ta,0.2381999999999999
Li5V3CrO8,0.2381999999999999
Ce(As3Ru)4,0.2381999999999999
YCu3Se2ClO8,0.2384999999999997
Na4MnO4,0.2385999999999999
MnV3(PO4)4,0.2386999999999997
Y2ZnSe4,0.2390000000000001
V3(FeO6)2,0.2398999999999999
Tb5Te9,0.2399999999999993
ZrCrO4,0.2399999999999997
Li6Co6O5F11,0.2401000000000001
Li8Mg3Cu9(SiO3)16,0.2401999999999997
Rb6Nb6H14O27,0.2402999999999999
AlIn(CuSe2)2,0.2407000000000003
Li4Cr3O8,0.2410999999999998
Cs4Sn21Hg2,0.2411000000000003
AgTe,0.2411000000000003
Eu(GdS2)2,0.2412999999999998
Ca8H3N4,0.2414
Na8MgV2O8,0.2414
Ca6Mn3Al2O15,0.2414999999999998
Rb4FeO4,0.2417
Na2TiH4O5,0.2417000000000002
Sr4Co3ReO12,0.2418
K4Np3H8Cl7O10,0.2418
Li4Mn5Cu(PO4)6,0.2418999999999997
Os2O3F7,0.2419
Na2MnPCO7,0.242
Np2H2SeO10,0.242
Ca5(SnAs3)2,0.2420999999999997
Rb2CoO3,0.2421999999999999
AgAuO3,0.2423000000000001
Na4Cu(MoO4)3,0.2423000000000001
ThTeO,0.2423999999999999
K2GdF5,0.2423999999999999
Zn2InCuSe4,0.2425000000000001
CuAgSe,0.2427000000000001
Li4Mn3Sn3(TeO8)2,0.2427000000000001
Rb2Mn3Te4,0.2427000000000001
Th(BOs)4,0.2428999999999996
Rb2CeAgBr6,0.2433
Li6Mn3Cr(PO4)6,0.2435
DyN3O10,0.2435
CaLaTiMnO6,0.2435999999999998
Bi5(TeO6)3,0.2435999999999998
BaCaSn,0.2437
Li2Mn2P2O9,0.2437
Mg3Nb6O11,0.2437000000000004
LiMn5(CuO6)2,0.2438000000000002
MnZnSe2,0.2439
BaTiZnF7,0.2442999999999999
TbCuTe2,0.2443999999999997
Li4Mn5V(PO4)6,0.2449999999999996
LiCr2CoO6,0.2450999999999998
LiTiNiF6,0.2452
MnZn4Se5,0.2452999999999998
Cs2LaN5O17,0.2457999999999999
Li3Mn3(PO4)4,0.2458999999999997
Ba2CoCl6,0.2459999999999997
La16Cu8O31,0.2460999999999993
Rb7(FeO4)2,0.2460999999999998
NaMg14CoO16,0.2461999999999999
Pr3CrS6,0.2463999999999995
GaAgTeSe,0.2464999999999997
Ge2TeSe,0.2465999999999999
Sm3Cu3Sb4,0.2466999999999997
CuH2PbSO6,0.2467000000000001
MnV2O7,0.2468
MnH8(SO6)2,0.247
BaZnAsF,0.2470999999999996
Li3Mn2P2(O4F)2,0.2471999999999998
Li4Ti4Mn5O18,0.2472000000000003
LiV6O15,0.2473
CaGaSnH,0.2478999999999995
MnAgO4,0.2478999999999999
NiP5O14,0.248
RbCu2(SeO5)2,0.2481
Eu2Al42O65,0.2484999999999999
Na2La4Si3Ge4(S3O16)3,0.2486
BaNaTiF6,0.2486000000000001
Eu3(AsS4)2,0.2486000000000001
VSiRh,0.2491000000000003
MgCuP2O7,0.2491999999999996
Mn3V2O8,0.2492000000000001
Li4Mn3(SnO5)2,0.2492999999999998
Gd3SbO3,0.2492999999999998
Sr2Nb2Bi3BrO11,0.2494
CaCr4O6,0.2495000000000002
BaNaCe2C4O12F,0.2496
Sb4(TeSe)3,0.2496
MgCo2(SO5)2,0.2496999999999998
HfTa5B4,0.2497999999999995
Np(PS3)4,0.25
Li4Mn3Cr3(SbO8)2,0.2500999999999997
Mn9(PO4)8,0.2503999999999999
Eu2MgTi2(ClO3)2,0.2503999999999999
Ba3CaBi2O9,0.2503999999999999
Na8Nb5O14,0.2504999999999997
MgTl6C2(O3F)2,0.2505000000000001
Li6Cr3P8O29,0.2506
CeH(SeO3)2,0.2509999999999994
TbMg149,0.2509999999999999
Ba2Tb2Mn4O11,0.2513999999999998
Tb8Se15,0.2515999999999998
Li8Mn5O10,0.2516000000000002
Sr2DyRuO6,0.2518000000000002
CuBi5S8,0.2520000000000006
NaCaSnSbO6,0.2520999999999995
Cs2Ni(PS3)2,0.2521999999999997
LiMnCr2O6,0.2522
K5CuAs2,0.2524999999999999
Sn(SbTe2)2,0.2525000000000004
Na2Mg(NiO2)5,0.2531999999999996
Ba(InSb2)2,0.2531999999999996
K2AgF4,0.2533999999999999
Ca3AlSb3,0.2534
Mn5V2Pb3O16,0.2538
Sr2LiCoN2,0.2539000000000002
VZn2IrO6,0.2539000000000007
Mg2ReN3,0.2539999999999995
MgMo2H4(Cl2O3)2,0.2542000000000001
Ca6Si3O13,0.2545999999999999
Mn3(AgO2)4,0.2549000000000001
Li4Mn5Cr2O12,0.2550000000000003
GdCrB4,0.2551000000000005
TmNiSb,0.2551999999999994
Mn(GaSe2)2,0.2552999999999996
Sn2PO5,0.2553000000000001
Na8ThU(MoO4)8,0.2554000000000003
VOF2,0.2555999999999999
Na9Mn21O40,0.2556000000000002
NiAg2Sn3S8,0.2556999999999991
Mn3Co3(SbO8)2,0.2557
MgMn4(O2F3)2,0.2559
Rb2CeCuCl6,0.2559
Li5TiMn3O8,0.2561
Na7Mn11O24,0.2561
Li8Mn9O18,0.2562000000000002
Li3Mn5O10,0.2564999999999999
Li5Sn5(PO4)6,0.2564999999999999
Na3LiMn5O9,0.2566000000000001
Mn7SiO12,0.2566999999999999
PrSiP3,0.2568000000000001
Sr3BiN,0.2568999999999999
Rb2InAgBr6,0.2571
ErCrO3,0.2571000000000003
SrVN2,0.2572000000000001
SrLiN,0.2574000000000001
Zr6Zn23Ge,0.2574999999999998
Li3MnCr3O8,0.2576
Sr3SbN,0.2576999999999998
Mg2CuN2,0.2577000000000007
Mn5P4(H3O10)2,0.2578
Nd2Ta2O9,0.258
Li5Mn5O9F,0.258
KBa2As5,0.2582999999999997
LiMn3OF8,0.2583
Li9Mn14O32,0.2584000000000004
Ag(AuF4)2,0.2584999999999997
Li4Mn5(Fe2O9)2,0.2585999999999999
K3V2(S2O9)2,0.2588
PrZnAgP2,0.2591999999999999
Na2OsO4,0.2593000000000001
MnCr2(SeS)2,0.2595999999999998
Zn(BiO2)4,0.2596999999999996
CuH5C3NO4,0.2597
MgMnO3,0.2597
Nb6Tl2VCl18,0.2599999999999998
Sr2MgCu2(BiO4)2,0.2599999999999998
Na3Fe2(MoO4)3,0.2606000000000001
TeH5O6,0.2608
Mg4V5(TeO6)3,0.2610999999999999
Cs9Fe2S7,0.2616
Th3P4,0.2616999999999994
Rb2NaCeI6,0.2617000000000002
Na4Al3(SiO4)3,0.2618999999999998
SnH16C4(NO4)3,0.2623999999999999
MnCr3O8,0.2624999999999997
LiMn5O10,0.2624999999999997
Ba3Nb2(OF3)4,0.2626999999999999
Li5Mn5(CoO6)2,0.2627999999999999
KU(TeO4)2,0.2629000000000001
Sr2MnMoO6,0.2631999999999999
Na3Mg(NiO2)5,0.2633999999999998
YMg149,0.2634999999999996
LiNdS2,0.2637
Mg2B12H24O35,0.2639
Ca(Co2O3)2,0.2644999999999999
SrCuN,0.2644999999999999
SrMg14SnO16,0.2647000000000004
MnCu2GeS4,0.2648000000000001
Mg2Cu2P2(H4O5)3,0.2648000000000001
KPd2O3,0.2648000000000001
Cs3W2Cl9,0.2651999999999996
Mn3CrO8,0.2651999999999996
Sb3RhPb4O13,0.2652999999999998
Mn5Cr3O16,0.2656
USi8H56(C4N)4,0.2657999999999999
Te4Au(OF5)4,0.2658000000000002
Mg2BO4,0.2659000000000002
Ca(BiO2)4,0.2662999999999997
UTlF5,0.2663000000000002
Mg149Sb,0.2663000000000002
MgTiF5,0.2663999999999999
Ba6Mn4Co2ClO16,0.2665999999999999
ZnAg2GeO4,0.2667999999999999
Li6MnNi7O16,0.2669000000000001
Mg4Fe5(TeO6)3,0.2670000000000003
Si3Ag3(SnP3)2,0.2673000000000005
Fe2Mo3O8,0.2673000000000005
ThNiSn,0.2675
SrCaPb,0.2677999999999998
Sr(PbN)2,0.2680999999999995
Cs2O,0.2681999999999997
SrMg30NbO32,0.2683999999999997
GeSb4Te7,0.2689000000000003
Rb2Fe4O7,0.2689999999999999
Y2Cu3(WO4)6,0.2692999999999999
ZrAsIr,0.2694999999999998
CdSnP2,0.2694999999999998
MnAlBiO5,0.2694999999999998
Y2CuH5S2O12F,0.2696
YC3O8,0.2701
Sm10Se19,0.2701000000000002
NiH18(I5N3)2,0.2703
Na2FeBPO7,0.2705
K2Cr3O9,0.2705999999999999
UBr4(NO2)2,0.2705999999999999
Fe(CoO2)2,0.2705999999999999
K2CeAl(SiO3)4,0.2709000000000001
Cs(SeO3)3,0.2710000000000001
RbTl3O5,0.2713000000000001
Th3As4,0.2713000000000001
Nb3Tl3O10,0.2713999999999998
Sr2SnHg,0.2717
TiZnAg(PO4)3,0.2719
In3CuSe5,0.2720000000000002
Ba3SrY8(CuO5)4,0.2720000000000002
Sr2Ce2Ti5O15,0.2724000000000002
CoP2H2O7,0.2725999999999997
Sr2CrBiO6,0.2726999999999999
Li4Mn3Sb(PO4)4,0.2728000000000001
Cr2HgSe3S,0.2728000000000001
Li4NbFe3O8,0.2730999999999999
LiMnAsO5,0.2731000000000003
TlVCl3,0.2734000000000005
UTlO3,0.2736
Mg30NbZnO32,0.2736999999999998
Rb2CeAgCl6,0.2738
K2LiS2(O2F)2,0.2739
Na2Li2FeO4,0.274
Li4TiFe3O8,0.2744
Na2Co2Si8H72C24N4O,0.2744
Sr6CoC2N7,0.2744
KNaMnO2,0.2744999999999997
Li4Ti3Mn2Fe3O16,0.2745999999999999
Sr4Fe3ClO8,0.2749000000000001
MgMo2(RhO3)4,0.2749000000000006
Na2CuMoF6,0.2749999999999999
La8Hf4MgO20,0.2750000000000003
Sn(HgSe2)2,0.2753000000000001
TiAl(WO4)2,0.2755000000000001
NaCa2(SiO3)3,0.2757
NiTeO4,0.2761000000000004
Tb7CoI12,0.2763
Mg149Sc,0.2763999999999997
Li4MnSb(WO6)2,0.2764999999999999
Rb6ReN4,0.2772999999999999
YB4Mo,0.2774000000000001
NaSrTiF6,0.2774000000000001
MgAlMoS4,0.2774999999999998
CoPO4,0.2776999999999998
LaTb3(Mo2O7)2,0.2778
CeTlP2S7,0.2782999999999997
RbNa2Al3Ge3O13,0.2783
TiFe(PO4)2,0.2784999999999997
SrEuTiSnO6,0.2790000000000008
Mg14MnSiO16,0.2791999999999994
SrCaCrBiO6,0.2793000000000001
Gd3MnAlS7,0.2793999999999998
CaTiAg(PO4)3,0.2798
YMg30CdO32,0.2798999999999996
HoMg149,0.2799
Li4Fe3Co3(SbO8)2,0.2800999999999995
Rb2NaCeF6,0.2801999999999998
Dy(ZnP)3,0.2802999999999995
Zr6CI12,0.2803999999999997
Ba3GaN3,0.2804999999999999
NaSb3O8,0.2807000000000004
Li3Nb4NiO12,0.2808999999999999
Li4Ti2Mn3Fe3O16,0.2808999999999999
Mn2ClO3,0.2809999999999999
Na2Zn2SiGe2S5O24,0.2811000000000001
RbFeAgF6,0.2813999999999999
MoW3(Se3S)2,0.2814000000000001
FeMoO4,0.2814999999999998
ZnO,0.2816000000000001
Pr2Br5,0.2816999999999998
Mg3Cu2(Si2O7)2,0.2818
Y6PdBr10,0.2818
NbTe4I,0.2818000000000005
Li5Nb2Fe3O10,0.2818999999999994
Li4NbFe5O12,0.282
Li6FeCo9O20,0.282
Rb2Ba8Mg(Sb3O)2,0.2824
YMg6CoO8,0.2830000000000003
LiMnFeO4,0.2833999999999999
KBaV2CuClO7,0.2839
Lu2Cu2O5,0.2839999999999998
Si2MoO6,0.2843
RbCr5S8,0.2846999999999999
K9Co2S7,0.2848
Na3InSb2,0.2848000000000001
SmWO5,0.2851
LiSiB,0.2852999999999994
Ca2TmRuO6,0.286
Mg2AgSbO6,0.2860999999999998
MgTi2(CuO4)2,0.2861
MgFe2(SbO3)4,0.2862
Mg149Bi,0.2863000000000002
Sm3P3O14,0.2864
Na3(CO3)2,0.287
Mn(CuSe)2,0.2870999999999997
Sr6Mg(Te4O11)2,0.2874999999999996
MgAg20(BiO4)4,0.2875000000000001
MgCo2(SbO3)4,0.2881
SrCaSn,0.2881999999999998
ScCuSe2,0.2884000000000002
Sr3Bi2Se6O19,0.2885999999999997
AlSiP3,0.2885999999999997
RbNa7(CoO3)2,0.2889000000000001
Sr2(FeO2)3,0.2890999999999999
PrPS,0.2892000000000001
KIn(PO4)2,0.2893
Eu2SiS4,0.2894000000000005
Na2CaFe2(PO4)3,0.2896000000000001
BaCdSbF,0.2896999999999998
Pr3InFeS7,0.2897999999999996
CeMg(BO2)5,0.2899999999999991
Na7Al2Sb5,0.29
Eu(BO2)2,0.2902999999999993
Mn9(FeO6)4,0.2904
MgFe2(CoO4)2,0.2906999999999997
LiAlPO5,0.2907999999999999
Mg30CdCuO32,0.2907999999999999
Cs2LiCeBr6,0.2909000000000001
Zn(WSe2)2,0.2909999999999999
Li7Eu8Si4Cl7O16,0.2913999999999994
MgFe6(OF)6,0.2913999999999999
Dy6Mg(Sb5O12)2,0.2915999999999998
InSO5,0.2917
MgTi2(SnO3)2,0.2917999999999994
AgH8O5,0.2917999999999999
Na2VBPO7,0.2917999999999999
Li2CuBi(PO4)2,0.2921000000000004
Ba2ZnSb2,0.2922000000000002
Rb2LiCeBr6,0.2925
Cs2SnI6,0.2937999999999998
CsTlAgF6,0.2939999999999999
LiAlSi2HO7,0.2941
Sr7CaTi3Mn5O20,0.2943000000000002
YNiSb,0.2945000000000002
Rb4MgU4Cr4O24,0.2947999999999999
CaCuAsHO5,0.2947999999999999
ZnTe,0.2949000000000001
Li2NiP2O7,0.2949999999999999
NaMg30CO32,0.2949999999999999
RbVCu3Se4,0.2951999999999999
SrCrInWO6,0.2952000000000003
ZnAs,0.2952999999999997
Fe41O56,0.2954000000000003
Ti3Cu2Te(PO4)6,0.2955000000000001
LiAcRh2,0.2955000000000005
LiFe4(PO4)4,0.2955999999999998
BaPPd,0.2955999999999998
SrGaGeH,0.2957999999999998
NdCrO4,0.2958
Li3CuS3,0.296
SrTbEuSbO6,0.2960000000000002
Na2NbF6,0.2960999999999998
CuHgSCl,0.2962999999999995
SrCaTbFeO6,0.2963
Y3Cu3Sb4,0.2964000000000002
TbCrO4,0.2967000000000002
NaZrCuSe3,0.2968000000000002
LiMg30CO32,0.2968999999999999
LiSnSb,0.2970999999999995
Sr20Fe9Co(MoO6)10,0.2971000000000003
La4CoO8,0.2971999999999992
PrCrO4,0.2971999999999999
MnSi(AgTe2)2,0.2972000000000001
NiSn3(PO4)4,0.2972000000000001
NbFe(PbO3)2,0.2973999999999996
SrCaDyFeO6,0.2974999999999999
Li7V6(OF)12,0.2978
Y2CrH6,0.2981999999999996
NaVCu3Se4,0.2984
SrCaSmFeO6,0.2989000000000001
NaV4Cd3O12,0.2989000000000001
Ti2N2O,0.2989999999999995
Li4NbV3Cr2(PO4)6,0.2989999999999999
NaTbEuWO6,0.2999999999999998
CsNb4Br11,0.3001
Na4Mg(Ni2O5)2,0.3003
Mg6MnVO8,0.3003999999999998
Cd2InAgTe4,0.3005999999999997
Li4Ni3Sn3(SbO8)2,0.3006000000000002
Na4Bi2C4SO16,0.3006999999999999
Li4V5Sn3O16,0.3007999999999997
Li2NiPO4F,0.3008999999999999
LiPr2RuO6,0.3014999999999999
LiNi6P7O24,0.3018
Bi12SbO20,0.3018
Mn(CuS)2,0.3018999999999998
Al2CuSi2O8F,0.302
TlIn2GaSe4,0.3027000000000002
V3NiO8,0.3029000000000001
LiDyS2,0.3030999999999997
LiGdS2,0.3031999999999999
YLuCr2O8,0.3033999999999999
Li4V3Fe3(SnO8)2,0.3037999999999998
MgCo3P3O13,0.3042
Na4Al3Si3ClO16,0.3044
Na6Li2Y3Zr3P6(CO17)2,0.3046999999999997
CsMn(PO3)6,0.3046999999999999
Zn(PtO2)3,0.3047000000000004
Na3Zn2CuH8S4O17,0.305
FeSiGe,0.3052000000000001
CuSb(MoO4)2,0.3054000000000005
SrCu(SeO3)2,0.3056000000000001
Dy2Cu(SO6)2,0.3057999999999999
Zr2ZnAg2F14,0.3058
Li5V3F14,0.3058
K3ErH9(C3O7)2,0.3059
Sm4Cu5P7,0.3063000000000002
LiMg30SiO32,0.3065000000000015
Li5V2Ni3O10,0.3066
Na3Sr3GaSb4,0.3066
MgMn4(Si4O11)2,0.3066999999999997
Ag3F8,0.3068999999999999
Mg3Cu2(GeO4)3,0.3069999999999999
V8Cd3CuO24,0.3069999999999999
Na2BiAu,0.3069999999999999
TePOs,0.3070000000000004
Li2V5CuO12,0.3071000000000001
Mg(Co2O3)2,0.3072999999999997
Na2CuP2O7,0.3074999999999999
Rb2CuH12(SO7)2,0.3077
Mg(SnO2)4,0.3079
EuHCl,0.3079999999999998
K2CuH12(SO7)2,0.3079999999999999
Ba5(Si2O7)2,0.308
Ce2H16S3O20,0.3082000000000002
V11NiO18,0.3082000000000002
CaCeAlFe2Si3O13,0.3082000000000002
Nb2Pd3Se8,0.3082000000000002
MoWSe3S,0.3083999999999998
YMg30ZnO32,0.3087999999999997
KPu2F9,0.3088999999999999
Li2Mn3NiO8,0.3090999999999999
K2Si4SbO11,0.3090999999999999
Na3CuBSO7,0.3091999999999997
MgMnS2,0.3094000000000001
Rb12Sn2As6O,0.3095000000000001
Ti2Cu(PO5)2,0.3096999999999998
MnTl2SnTe4,0.3098999999999998
SrTl2Cd,0.3098999999999998
Li4Ti3Ni3(SnO8)2,0.3098999999999998
Cs9(NbAs3)2,0.3098999999999998
Ca2CuB2(HO)12,0.3101
VCr3O8,0.3101999999999999
GdBe2B5O11,0.3102
CaTi2CoO7,0.3102
SrEuDyNbO6,0.3102999999999998
BaCeInSbO6,0.3104999999999993
SrBiO3,0.3106
TlCu7S4,0.3106999999999997
K4Mo6PtO26,0.3107999999999999
SrHfN2,0.3109000000000002
Rb4Pb9,0.3109999999999999
SbN3(O3F)3,0.3109999999999999
SrPrNiBiO6,0.3113000000000001
Sr6GaN5,0.3114000000000003
ScMnGaS4,0.3117000000000001
Li4Nb3Ni3(TeO8)2,0.3117999999999998
Na3Co2CuH8S4O17,0.3119
Cu4Mo5O17,0.3119
YCu3(SnO3)4,0.3119000000000005
Ca5Cr3O13,0.3121
NaSr2AlP3,0.3122000000000002
DyNiSb,0.3123000000000004
Na3CuO3,0.3125
Li4V3Fe2Ni3O16,0.3125
Na3CuPHClO5,0.3125999999999997
Zr2SeN2,0.3129999999999997
CaV2CuO7,0.3129999999999999
Er2Cu2O5,0.3130000000000001
Mg3(InN2)2,0.3130999999999995
Sr11(CdSb2)6,0.3131999999999997
RuSe2,0.3137999999999996
Ca5(CuN2)2,0.3138999999999998
K2CoH4(SeO5)2,0.3138999999999999
Li4Nb3Ni3(SnO8)2,0.314
Mn8O17,0.3141
K3CeBr6,0.3147999999999999
NaCuP2O7,0.3147999999999999
Ba21(Cd2Bi9)2,0.3148999999999997
Li8Mn15CrO32,0.3151999999999999
K2NaCeBr6,0.3152000000000001
Ca2Al4(Si2O7)3,0.3152999999999999
CeZr2F11,0.3153000000000001
Na4(NiO2)5,0.3153999999999999
SrUI6,0.3156000000000001
MnVO3,0.3157000000000005
K2RbCeBr6,0.3159
Ti2Zn(CuO4)2,0.3166
NiOF2,0.3167
USb2F15,0.3167
Li4Mn5(NiO6)2,0.3168999999999999
Li2Mn2Ni(PO4)3,0.3168999999999999
HfSe3,0.3170999999999999
K2Cu3Ge5O14,0.3172000000000001
Li4Ti3Cr3(TeO8)2,0.3173000000000003
Mn4Zn3(NiO6)2,0.3174000000000001
MgV2CuO7,0.3174999999999999
Li7FeO6,0.3176
RuC4(O2F3)2,0.3176
Pr10Se19,0.3176999999999994
Li4Ni5SnO12,0.3176999999999998
Li2VF4,0.3177999999999996
Cd(HgTe2)2,0.3177999999999996
Na2(NiO2)7,0.3178000000000001
Cu2HgI4,0.3178999999999998
NaMgPH12O11,0.318
Na3W2(ClO)4,0.3182
LiSn4P7O24,0.3184
Mg(AlB14)2,0.3186
Pr4FeS7,0.3186000000000004
NaCe(PO3)4,0.3187000000000006
Ca2CdSb2,0.3189999999999999
Li2MgNi3O8,0.3191999999999999
Sr2YAlV2O7,0.3193999999999999
Li5V3Bi2(PO4)6,0.3195000000000001
Li5Mn5(NiO6)2,0.3198000000000003
UB8O17,0.3199
SrCaYRuO6,0.3199000000000001
TaAg7S6,0.3199000000000001
Sr3(FeO3)2,0.3201
V3Cu(PO4)6,0.3203
SrEuYNbO6,0.3205
NbAlFe2,0.3207000000000004
ZnCdCu4(SnS4)2,0.3207000000000004
Na3U2O10F7,0.3209000000000002
VInCuO5,0.3209999999999997
Li6Mg(Ni6O13)2,0.3209999999999997
NaCoF4,0.3221
Pd3Se2S,0.3222
Ca2Al4Si4O17,0.3223
Rb2LiCeCl6,0.3224
Mn5(FeO3)4,0.3225000000000002
Li4Mn3Nb(PO4)4,0.3225999999999995
Rb2CeI5,0.3226
Fe3B11HO20,0.3226000000000004
Na7Sn12,0.3226000000000004
Li4(NiO2)11,0.3229999999999999
Dy7(CuTe4)3,0.3231999999999999
RbLi3S2O9,0.3232
RbNb4Br11,0.3233000000000001
CaMg30CuO32,0.3233999999999994
Na2MgFe2(PO4)3,0.3233999999999999
Na10(WO3)13,0.3234999999999997
Ga2CoS4,0.3237999999999998
SrMn(PO4)2,0.3239999999999998
Li2CuN,0.3239999999999998
Li3CuF5,0.324
Li2Mn2NiO6,0.3242000000000002
MgMn3FeO8,0.3245999999999998