formula,band_gap
Li5Fe3(CuO5)2,0.0
Li5GeAs3,0.0
Li5Mg,0.0
Li5La3Nb14O42,0.0
Li5In4,0.0
LiBeB,0.0
Li5Fe2P2(CO7)2,0.0
Li5Fe2Ni3O10,0.0
Li5Cu2Ni3O10,0.0
Li5Cr5O12,0.0
Li5Cr3FeO8,0.0
Li5Cr2P5O18,0.0
Li5Cr2Ni3O10,0.0
Li5Cu2Ni5O12,0.0
Li5Cr2Co3O10,0.0
Li5Co5(SnO6)2,0.0
Li5Co5(SbO6)2,0.0
Li5Co4NiO10,0.0
Li5Cr(SiO3)4,0.0
Li5Cu3(NiO5)2,0.0
Li5Fe2Cu5O12,0.0
Li5Fe2Co3O10,0.0
Li5Fe2(IrO5)2,0.0
Li5Cu3(TeO5)2,0.0
Li5Fe(Ni2O5)2,0.0
Li5Cu6(P2O7)4,0.0
Li5Cu5(TeO6)2,0.0
Li5Cu5(NiO6)2,0.0
Li5Cu4(BO3)4,0.0
Li5CuHO4,0.0
Li6Mn3Cu(PO4)6,0.0
LiBe2Pt,0.0
LiAc2Pb,0.0
LiAc2Ru,0.0
LiAc2Si,0.0
LiAc2Tl,0.0
LiAc3,0.0
LiAcHg2,0.0
LiAcO3,0.0
LiAcTl2,0.0
LiAg,0.0
LiAg2Sn,0.0
LiAg2Pd,0.0
LiAc2Ir,0.0
LiAg2Pb,0.0
LiAg2F5,0.0
LiAg2Ge,0.0
LiAc2Ga,0.0
Li9V12Fe7O48,0.0
LiAg3(IrO3)2,0.0
Li9Ti7Nb5O30,0.0
Li9Ti7Cr6O30,0.0
Li9Ti5(SiO8)2,0.0
Li9Ti12NbO30,0.0
Li9Sn3P8O29,0.0
Li9Si2NiO10,0.0
Li9Ni23O32,0.0
Li9Ni15O28,0.0
LiAg3F8,0.0
LiAu,0.0
LiAsRh2,0.0
LiAsPd2,0.0
LiAlZn2,0.0
LiAlVO4,0.0
LiAlSi2O7,0.0
LiAlPt2,0.0
LiAlPd2,0.0
LiAlPd,0.0
LiAlFeO4,0.0
LiAlRh2,0.0
LiAlCu2,0.0
LiAu4Se4(ClO3)4,0.0
LiBe,0.0
LiBPt3,0.0
LiBIr,0.0
LiBH,0.0
LiB,0.0
LiBeAu2,0.0
LiAl,0.0
LiAgTe,0.0
LiAgF4,0.0
LiAgF3,0.0
LiAg5F12,0.0
LiAlAu2,0.0
LiAl2Cu,0.0
LiAlAg2,0.0
LiAl3,0.0
LiAl2Tc,0.0
LiAl2Rh,0.0
LiAl2Ni,0.0
LiAl2Ir,0.0
LiAl2H4Pb2(O2F3)2,0.0
LiAl2Os,0.0
NiAsO4,0.0
NiAsPd,0.0
TmCdNi4,0.0
TmCdPd2,0.0
TmCdRh2,0.0
TmCo2B2C,0.0
TmCo3,0.0
TmCo3B2,0.0
TmCo3P2,0.0
TmCo4B,0.0
TmCo5P3,0.0
TmCo5Si3,0.0
TmCoB4,0.0
TmCoC,0.0
TmCoC2,0.0
TmCuGe,0.0
TmCuAs2,0.0
TmCu5Sn,0.0
TmCu5,0.0
TmCdHg2,0.0
TmCu4Ag,0.0
TmCu,0.0
TmCoSi2,0.0
TmCoSi,0.0
TmCoGe2,0.0
TmCu2,0.0
TmCdCu4,0.0
TmCdAu,0.0
TmB4Ru,0.0
TmB4Os,0.0
TmB4,0.0
TmB2Ru3,0.0
TmB2Ru,0.0
TmB2Rh3,0.0
TmB2Ir3,0.0
TmB2C,0.0
TmB2,0.0
TmB12,0.0
TmAu4,0.0
TmAu3,0.0
TmB2Os,0.0
TmBPt2,0.0
TmCdAg2,0.0
TmCd3,0.0
TmCd2,0.0
TmCd,0.0
TmBiPt,0.0
TmBPd3,0.0
TmBiPd2,0.0
TmBeCu4,0.0
TmAu2,0.0
TmCuSi,0.0
TmGe2Os,0.0
TmGe2Pt,0.0
TmGe3,0.0
TmGeAu,0.0
TmGePt,0.0
TmGeRh,0.0
TmGeRu,0.0
TmH2,0.0
TmHfCo2,0.0
TmHfIr2,0.0
TmHfOs2,0.0
TmHfRu2,0.0
TmHg,0.0
TmInCu2,0.0
TmInCo4,0.0
TmInAu,0.0
TmInAg2,0.0
TmIn7Cu5,0.0
TmIn5Rh,0.0
TmIn3,0.0
TmIn2Sn,0.0
TmIn2Pd,0.0
TmIn,0.0
TmI2,0.0
TmHg3,0.0
TmIn5Co,0.0
TmGe,0.0
TmGaRh2,0.0
TmGaPt,0.0
TmFeO3,0.0
TmFeGe2O7,0.0
TmFeB4,0.0
TmFe5P3,0.0
TmFe4(CuO4)3,0.0
TmFe3,0.0
TmFe2SiC,0.0
TmFe10Mo2N,0.0
TmFe4B,0.0
TmGa2Ni,0.0
TmGa2Pd,0.0
TmGaPd2,0.0
TmGaNi2,0.0
TmGaAu,0.0
TmGa2Ni3,0.0
TmGaAg,0.0
TmGa3Os,0.0
TmGa3,0.0
TmGa6,0.0
TmAu,0.0
TmAsSe,0.0
Tm5Ir3,0.0
Tm5Mg,0.0
Tm5Ni2Bi,0.0
Tm5Ni2Sb,0.0
Tm5NiPb3,0.0
Tm5P12Ir19,0.0
Tm5Pb3,0.0
Tm5Pb4,0.0
Tm5Pt4,0.0
Tm5Re2C7,0.0
Tm5Rh3,0.0
Tm5S7,0.0
Tm6(Ga3Co)7,0.0
Tm5Zr3(Ni4As3)4,0.0
Tm5Tl3,0.0
Tm5Ti5O17,0.0
Tm5Te4Se,0.0
Tm5Sn3,0.0
Tm5SbPt2,0.0
Tm5SbPd2,0.0
Tm5Sb3,0.0
Tm5Si3C,0.0
Tm5In4,0.0
Tm5Ge4,0.0
Tm4US7,0.0
Tm4Mn4Sn7,0.0
Tm4MgRh,0.0
Tm4MgNi,0.0
Tm4MgGe4,0.0
Tm4MgCo,0.0
Tm6Al43Cr4,0.0
Tm5(Ge5Rh2)2,0.0
Tm5Ge3C,0.0
Tm5Ge3,0.0
Tm5Ga3,0.0
Tm5BiPt2,0.0
Tm5(GeSb)2,0.0
Tm5BiPd2,0.0
Tm5(SiSb)2,0.0
Tm5(ReO6)2,0.0
Tm5(In2Pd)2,0.0
Tm6Al7Cu16,0.0
Tm6Co2Sn,0.0
TmAlCu,0.0
TmAlCo4,0.0
TmAlGa,0.0
TmAlAu2,0.0
TmAlAu,0.0
TmAl7Fe5,0.0
TmAl7Au3,0.0
TmAlB4,0.0
TmAl3Ni2,0.0
TmAlNi,0.0
TmAsS,0.0
TmAsPt,0.0
TmAs,0.0
TmAlGe,0.0
TmAlZn,0.0
TmAlPt,0.0
TmAlNi4,0.0
TmAlSi,0.0
TmInCu4,0.0
TmAl3,0.0
TmAl2Ni,0.0
Tm6Ni2Sn,0.0
Tm6Nb4Al43,0.0
Tm6Mn23,0.0
Tm6InCo2,0.0
Tm6GaNi2,0.0
Tm6Ta4Al43,0.0
Tm6Ga17Pd5,0.0
Tm6FeSb2,0.0
Tm6FeBi2,0.0
Tm6Fe23,0.0
Tm6CoBi2,0.0
Tm6Co30P19,0.0
Tm6Ga17Pt5,0.0
Tm6Ti4Al43,0.0
Tm7Mg3Ge8,0.0
TmAl,0.0
TmAgSn,0.0
TmAgGe,0.0
Tm6Zn23,0.0
TmAg3,0.0
TmAg,0.0
Tm8S11,0.0
Tm8Rh5C12,0.0
Tm8In3Co,0.0
TmAg2,0.0
TmInPd,0.0
TmTiO3,0.0
TmTl,0.0
TmTl3,0.0
TmUTe4,0.0
TmUTe6,0.0
TmWO5,0.0
TmZn,0.0
TmZn12,0.0
TmZn5,0.0
TmZnGa,0.0
TmZrSb,0.0
TmZrRu2,0.0
TmZrOs2,0.0
TmZrCo2,0.0
TmZr3,0.0
TmZr,0.0
TmZnSn2,0.0
TmZnRh,0.0
TmZnPd2,0.0
TmZnPd,0.0
TmZnSn,0.0
TmTiFe11,0.0
TmSnPd2,0.0
TmSnPd,0.0
TmSnAu,0.0
TmSnPt,0.0
TmSn3,0.0
TmSiRu,0.0
TmSiPt2,0.0
TmSiPd2,0.0
U,0.0
TmSnPt2,0.0
TmSnRh2,0.0
TmThOs2,0.0
TmTh3,0.0
TmTe3O8,0.0
TmTe2,0.0
TmTe,0.0
TmSnRh,0.0
TmTc2,0.0
TmSnRu2,0.0
TmSiIr,0.0
U(Fe5Re)2,0.0
U(FeB3)2,0.0
U(FeP)2,0.0
U(FeSi)2,0.0
U(GaCu3)2,0.0
U(GaFe)6,0.0
U(Ge3Pt)4,0.0
U(GeIr)2,0.0
U(GePd)2,0.0
U(GePt)2,0.0
U(GeRh)2,0.0
U(PO3)4,0.0
U(NiP)2,0.0
U(NiGe)2,0.0
U(Ni2P)2,0.0
U(Fe5Mo)2,0.0
U(MnSi)2,0.0
U(MnGe)2,0.0
U(MnAl2)4,0.0
U(Mn2P)2,0.0
U(Fe2Ge)2,0.0
U(CuSn)2,0.0
U(AlC)3,0.0
U(Al5Ru)2,0.0
U(AlFe2)4,0.0
U(Al2Cu)4,0.0
U(Al10Cr)2,0.0
U(BRu)4,0.0
U(CuP)2,0.0
U(CuAs)2,0.0
U(CrSi)2,0.0
U(CrC)4,0.0
U(Cr3P2)2,0.0
U(CoP)2,0.0
U(CoGe)6,0.0
U(Co5Si)2,0.0
TmSi3Rh5,0.0
TmSi3Ni5,0.0
TmMgAu2,0.0
TmMgCd2,0.0
TmMgGa,0.0
TmMgPd,0.0
TmMgPd2,0.0
TmMgPt2,0.0
TmMgSn,0.0
TmMgTl,0.0
TmMgZn2,0.0
TmMn12,0.0
TmMn2,0.0
TmMn2SiC,0.0
TmMn4(CuO4)3,0.0
TmMn6(GaSn2)2,0.0
TmMoC2,0.0
TmMnSn2,0.0
TmMnSi2,0.0
TmMnSi,0.0
TmMnRh2,0.0
TmMgAu,0.0
TmMnGe,0.0
TmMnB4,0.0
TmMn6GaGe5,0.0
TmMnIn,0.0
TmMgAg2,0.0
TmMgAg,0.0
TmMg5,0.0
TmLuIn2,0.0
TmLuHg2,0.0
TmLuCu2,0.0
TmLuCo2,0.0
TmLuAu2,0.0
TmLuAg2,0.0
TmLu3,0.0
TmIr,0.0
TmInRh2,0.0
TmInRh,0.0
TmInPt,0.0
TmInPd2,0.0
TmNbRu2,0.0
TmLuMg2,0.0
TmMg3,0.0
TmLuPd2,0.0
TmMg2Sc,0.0
TmMg2,0.0
TmMg,0.0
TmLuZn2,0.0
TmLuRu2,0.0
TmNi,0.0
TmNi2,0.0
TmNi2B2C,0.0
TmRu3C,0.0
TmRu2,0.0
TmRh3C,0.0
TmRh3,0.0
TmRh2Pb,0.0
TmRh2,0.0
TmS,0.0
TmRh,0.0
TmRe2,0.0
TmPu3,0.0
TmPt2,0.0
TmPt,0.0
TmRe2SiC,0.0
TmSb3,0.0
TmSi,0.0
TmSe2,0.0
TmScZn2,0.0
TmSb,0.0
TmScHg2,0.0
TmSbRh2,0.0
TmSbRh,0.0
TmSbPt,0.0
TmSbPd2,0.0
TmSbIr,0.0
TmScPd2,0.0
TmInNi4,0.0
TmPd2Pb,0.0
TmNiGe2,0.0
TmNiC2,0.0
TmNiGe3,0.0
TmNi5,0.0
TmNi3Ge2,0.0
TmNi3,0.0
TmNi2Sn,0.0
TmNiO3,0.0
TmNiP,0.0
TmPaTc2,0.0
TmPaRu2,0.0
TmPaOs2,0.0
TmPPt,0.0
TmP,0.0
TmO2,0.0
TmNiSn2,0.0
TmNiSn,0.0
TmOs2,0.0
Tm4In(NiGe2)2,0.0
Ti4H3,0.0
Ti4H3Pd2,0.0
Ti4H5,0.0
Ti4H7,0.0
Ti4Mn5V3,0.0
Ti4MnS8,0.0
Ti4Ni(PO5)4,0.0
Ti4Ni4Ge7,0.0
Ti4NiBi2,0.0
Ti4NiS8,0.0
Ti4O3,0.0
Ti4O5,0.0
Ti4O7,0.0
Ti4Pd,0.0
Ti5(FeSb)4,0.0
Ti5(CuS5)2,0.0
Ti4ZnS8,0.0
Ti4WC5,0.0
Ti4V,0.0
Ti4Si7Ni4,0.0
Ti4Zn(CuO4)3,0.0
Ti4GaC3,0.0
Ti4Ga3Ni2,0.0
Ti4FeSe8,0.0
Ti4CoNi,0.0
Ti4CoBi2,0.0
Ti4Co7Ge6,0.0
Ti4Co4Si7,0.0
Ti4Co4Ge7,0.0
Ti4CoS8,0.0
Ti4C3N,0.0
Ti4AlN3,0.0
Ti4AlGe7,0.0
Ti4Al2CN,0.0
Ti4Cd(CuO4)3,0.0
Ti5AgSn3,0.0
Ti4Cr,0.0
Ti4Cr2Ge5,0.0
Ti4FeS8,0.0
Ti4FeNi,0.0
Ti4Fe2P3,0.0
Ti4CrTe8,0.0
Ti4CrC5,0.0
Ti4Cr3(PO4)6,0.0
Ti5Al11,0.0
Ti5O9,0.0
Ti5PO11,0.0
Ti5Re24,0.0
Ti5S8,0.0
Ti5Sb3,0.0
Ti5Sb5O17,0.0
Ti5Se4,0.0
Ti5Si,0.0
Ti5Si3,0.0
Ti6Al16Os7,0.0
Ti6Al16Ni7,0.0
Ti6Al16Fe7,0.0
Ti6AgS12,0.0
Ti5V(PO4)6,0.0
Ti5Sn3Au,0.0
Ti5Sn3,0.0
Ti5SiSb2,0.0
Ti5O7,0.0
Ti5NiSn3,0.0
Ti5Fe(PO4)6,0.0
Ti5CuSn3,0.0
Ti5CuBi3,0.0
Ti5FeSb2,0.0
Ti5CoSn3,0.0
Ti5CoSb3,0.0
Ti5CoSb2,0.0
Ti5Al2C3,0.0
Ti5FeSn3,0.0
Ti5Ga3,0.0
Ti5Nb2O14,0.0
Ti5MnSn3,0.0
Ti5MnSb2,0.0
Ti5MnS10,0.0
Ti5Mn7,0.0
Ti5Ga4,0.0
Ti5Mn3,0.0
Ti45Se16,0.0
Ti3MoAs4,0.0
Ti3N2,0.0
Ti3NO4,0.0
Ti3Nb(AlC)2,0.0
Ti3Nb(CuO4)3,0.0
Ti3Ni,0.0
Ti3NbV2(PO4)6,0.0
Ti3NbO8,0.0
Ti3Mn2Nb(PO4)6,0.0
Ti3NbNi2(PO4)6,0.0
Ti3NbCr2(PO4)6,0.0
Ti3NbAl2,0.0
Ti3Nb3Sn2,0.0
Ti3Mn2Cu(PO4)6,0.0
Ti3Mn2Co3O16,0.0
Ti3Mn2Co(PO4)6,0.0
Ti3Ga,0.0
Ti3FeSb2(PO4)6,0.0
Ti3Ge,0.0
Ti3FeCu2(PO4)6,0.0
Ti3Fe3(SbO8)2,0.0
Ti3Fe(PO4)6,0.0
Ti3Fe(CuS4)2,0.0
Ti3CuSn2(PO4)6,0.0
Ti3CuS6,0.0
Ti3FeCo2(PO4)6,0.0
Ti3H3Au,0.0
Ti3Mn(PO4)6,0.0
Ti3Mn(CuS4)2,0.0
Ti3Ir,0.0
Ti3InN,0.0
Ti3InC,0.0
Ti3GeC2,0.0
Ti3In4,0.0
Ti3In,0.0
Ti3Hg,0.0
Ti3NiSb2(PO4)6,0.0
Ti3O,0.0
Ti3VCr2(PO4)6,0.0
Ti3VCo2(PO4)6,0.0
Ti3V3Ge5,0.0
Ti3V2Si3,0.0
Ti3VNi2(PO4)6,0.0
Ti3V2Co(PO4)6,0.0
Ti3TlC,0.0
Ti3Te,0.0
Ti3SnH,0.0
Ti3SnC2,0.0
Ti3TlN,0.0
Ti3VSb2(PO4)6,0.0
Ti4(NbAl3)3,0.0
Ti3ZnP3O13,0.0
Ti3ZnN,0.0
Ti3ZnHg4,0.0
Ti3Zn22,0.0
Ti3Zn,0.0
Ti3WC4,0.0
Ti3Zn3N,0.0
Ti6Al16Pd7,0.0
Ti3P3O13,0.0
Ti3P,0.0
Ti3Os,0.0
Ti3O5,0.0
Ti3O2,0.0
Ti3Pd,0.0
Ti3PdO,0.0
Ti3Si3Mo2,0.0
Ti3Pd5,0.0
Ti3Sb,0.0
Ti3Rh5,0.0
Ti3Pt5,0.0
Ti3Pt,0.0
Ti3Se,0.0
Ti6Al16Pt7,0.0
Ti6Al16Ru7,0.0
TiCr2,0.0
TiCr2Ni3(PO4)6,0.0
TiCr3(CuSe4)2,0.0
TiCr3(PO4)6,0.0
TiCr3Te4,0.0
TiCr7O12,0.0
TiCrAgS4,0.0
Tm3B7W,0.0
Tm3AlN,0.0
TiCr(BIr)2,0.0
Tm3Al,0.0
Tm3(Si3Pd10)2,0.0
Tm3(P3Pd10)2,0.0
Tm3(In2Co)2,0.0
Tm3(GeRh)2,0.0
Tm3(SiNi3)2,0.0
TiCoSn,0.0
TiCoSi,0.0
TiCo,0.0
TiClO,0.0
TiCl3,0.0
TiCd3,0.0
Tm3Co11B4,0.0
TiCo2Sn,0.0
TiCoP,0.0
TiCoNiSn,0.0
TiCoGe2,0.0
TiCo2Si,0.0
TiCoGe,0.0
TiCo3(PO4)4,0.0
TiCo3,0.0
Tm3Co2Si3,0.0
Tm3Co6Sn5,0.0
Tm3PbC,0.0
Tm3Pd4,0.0
Tm3Pt,0.0
Tm3Pt4,0.0
Tm3ReB7,0.0
Tm3Ru2,0.0
Tm3Sb,0.0
Tm3Sc,0.0
Tm3Si11Pt23,0.0
Tm3Si3Ni,0.0
Tm3Sn,0.0
Tm3Th,0.0
Tm3Tl,0.0
Tm4(Al8Pd3)3,0.0
Tm4Ga21Ni10,0.0
Tm4Ga12Pd,0.0
Tm4CrS7,0.0
Tm3Pb,0.0
Tm4CoSn8,0.0
Tm4Co3,0.0
Tm4CdPd,0.0
Tm4CdIr,0.0
Tm4B3C4,0.0
Tm4(Al8Pt3)3,0.0
Tm3Os,0.0
Tm3Ni7B2,0.0
Tm3Ni13B2,0.0
Tm3Ga9Pt2,0.0
Tm3Ga8Rh3,0.0
Tm3Ga8Ir3,0.0
Tm3Ga5Ni,0.0
Tm3Ga5,0.0
Tm3Ge13Ir4,0.0
Tm3Ga2Ge3,0.0
Tm3Ga,0.0
Tm3FeSi3,0.0
Tm3Fe2Si3,0.0
Tm3Fe2Ge3,0.0
Tm3Cu11Si4,0.0
Tm3Ga2,0.0
Tm3Ge13Os4,0.0
Tm3Ni11Ge4,0.0
Tm3Ni,0.0
Tm3Mn3Ga2Si,0.0
Tm3Mg,0.0
Tm3Ge13Pt4,0.0
Tm3Ir,0.0
Tm3In,0.0
Tm3Hg,0.0
Tm3Ge4,0.0
Tm3Ge3Ru2,0.0
Tm3InN,0.0
TiC,0.0
TiBrO,0.0
Ti8Cu3Ni,0.0
Ti8Cu3S16,0.0
Ti8In5,0.0
Ti8Mn3(B4Ru9)2,0.0
Ti8N5,0.0
Ti8O15,0.0
Ti8Pb8O23,0.0
Ti8S3,0.0
Ti8Se3,0.0
Ti9Co2(B4Ru9)2,0.0
Ti9Fe2(B4Ru9)2,0.0
TiAl,0.0
TiAgSe2,0.0
TiAgHg2,0.0
TiAg,0.0
Ti9ZnS16,0.0
Ti8Bi9,0.0
Ti9Se2,0.0
Ti9O8,0.0
Ti9O17,0.0
Ti9O13,0.0
Ti9Ni2(B4Ru9)2,0.0
Ti8Al4CN3,0.0
Ti6Ge5,0.0
Ti6Ge2B,0.0
Ti6Ga16Ru7,0.0
Ti6Ga16Rh7,0.0
Ti6O,0.0
Ti6Ga16Pt7,0.0
Ti6Ga16Ir7,0.0
Ti6Ga16Co7,0.0
Ti6Co16Si7,0.0
Ti6Ga16Os7,0.0
Ti6O11,0.0
Ti7O8,0.0
Ti7O13,0.0
Ti7Cl16,0.0
Ti7B8(IrRh2)2,0.0
Ti7Al2O15,0.0
Ti6Sn5,0.0
Ti6Si7Ni16,0.0
Ti6Si2B,0.0
Ti6PtAu,0.0
Ti7(WO5)6,0.0
TiAl2,0.0
TiB2,0.0
TiAu4,0.0
TiAu3,0.0
TiAu2,0.0
TiAu,0.0
TiAsRu,0.0
TiAsRh,0.0
TiAs2,0.0
TiAs,0.0
TiB2W,0.0
TiBO3,0.0
TiBr2,0.0
TiBeRh2,0.0
TiBeIr2,0.0
TiBeCo2,0.0
TiBe4Nb,0.0
TiBe2Pt,0.0
TiBe2Ir,0.0
TiBe2,0.0
TiBe12,0.0
TiBe,0.0
TiBe3,0.0
Ti6Al16Rh7,0.0
TiAlVC,0.0
TiAlRu2,0.0
TiAlCo2,0.0
TiAlAu2,0.0
TiAlAu,0.0
TiAlCr,0.0
TiAl4Ni15,0.0
TiAl3,0.0
TiAl2V,0.0
TiAl3Ge,0.0
TiAlCu,0.0
TiAlCu2,0.0
TiAlPt,0.0
TiAlOs2,0.0
TiAlNi6,0.0
TiAlNi2,0.0
TiAlNi,0.0
TiAlIr2,0.0
U(PS3)2,0.0
U(PS3)4,0.0
TlCrSe2,0.0
TlCrTe2,0.0
TlCu2(SeO5)2,0.0
TlCu4S3,0.0
TlCuCl3,0.0
TlCuHSeO5,0.0
TlCuO2,0.0
TlHg,0.0
TlHPd3,0.0
TlFeSe2,0.0
TlFeS2,0.0
TlCr5Se8,0.0
TlFeCuSe2,0.0
TlFeBr3,0.0
TlCuSe2,0.0
TlCuS2,0.0
TlCuPO4,0.0
TlCr3Se5,0.0
TlBi,0.0
TlAu3,0.0
TlBi2,0.0
TlAsPd6,0.0
TlAs,0.0
TlAgTe2,0.0
TlAgPd2,0.0
TlAsPd5,0.0
TlHg3,0.0
TlBi3,0.0
TlBiSe2,0.0
TlCoNiSe2,0.0
TlCoF3,0.0
TlCoCl3,0.0
TlBiS2,0.0
TlCdTe2,0.0
TlBiTeSe,0.0
TlAgF3,0.0
TlIn,0.0
TlIn3,0.0
TlV(CrS2)4,0.0
TlV2Cr3S8,0.0
TlV3(CrS4)2,0.0
TlV3CdCu4O13,0.0
TlV5S8,0.0
TlV6PSe7,0.0
TlW2(Cl3O)2,0.0
TlWO3,0.0
Tm(BRh)4,0.0
Tm(BIr)4,0.0
Tm(BC)2,0.0
Tm(AlGe)2,0.0
Tm(AlFe)6,0.0
TlTe3Pt2,0.0
Tm(AlCu)6,0.0
Tm(Al5Fe)2,0.0
Tm(Al2Fe)4,0.0
Tm(Al2Cu)4,0.0
Tm(Al2Cr)4,0.0
TlTe,0.0
TlTcO3,0.0
TlPd3,0.0
TlPd2Au,0.0
TlPb,0.0
TlPPd5,0.0
TlP4(W5O17)4,0.0
TlMo6O17,0.0
TlMo6(SeS)4,0.0
TlPdF3,0.0
TlSiPt5,0.0
TlSe,0.0
TlSbS2,0.0
TlPd5Se,0.0
TlS2O9,0.0
TlS,0.0
TlRh3,0.0
TlPdPb,0.0
TlSbAu,0.0
TlAgCl3,0.0
Tl2F3,0.0
Tl2Fe3S4,0.0
Tl2Fe3Se4,0.0
Tl2FeCu3S4,0.0
Tl2FeCu3Se4,0.0
Tl2Ge2O7,0.0
Tl2Mo15Se19,0.0
Tl2Mo9S11,0.0
Tl2Mo9Se11,0.0
Tl2MoCl6,0.0
Tl2Pt,0.0
Tl2Pd9Pb,0.0
Tl2Pd3Se2,0.0
Tl2Pd3S2,0.0
Tl2PO4,0.0
Tl2O3,0.0
Tl2NiF4,0.0
Tl2Pd,0.0
Tl2CuF4,0.0
Tl(V3S4)4,0.0
Tl(SbO3)2,0.0
Tl(WO3)3,0.0
Tl(MoO3)3,0.0
Tl(Mo3Se4)2,0.0
Tl(Mo3S4)2,0.0
Tl(FeTe)3,0.0
Tl(NiS)2,0.0
Tl2Rh3S2,0.0
Tl(WO3)6,0.0
Tl(ZnSb)2,0.0
Tl2Co3NiSe4,0.0
Tl2Cl3,0.0
Tl2Bi2Te3Se,0.0
Tl2Au,0.0
Tl2Ag16Te11,0.0
Tl2(PbO3)3,0.0
Tl18Ag59Se39,0.0
Tl16O15F17,0.0
Tl2SnTe5,0.0
Tl2TeO6,0.0
Tl4CrI6,0.0
Tl4Bi,0.0
Tl4AuSe3,0.0
Tl4Ag18Te11,0.0
Tl3Zn,0.0
Tl3SnSe4,0.0
Tl3Sn,0.0
Tl3S2O9,0.0
Tl3S,0.0
Tl3VF6,0.0
Tl3Pt,0.0
Tl4Cu4(P2O7)3,0.0
Tl4Sn,0.0
TlAgBr3,0.0
Tl9SnTe6,0.0
Tl7Sb2,0.0
Tl4Pd15Pb,0.0
Tl7(Ag18Te11)2,0.0
Tl5Te3,0.0
Tl5Se3,0.0
Tl5(Cu7Se5)2,0.0
Tl6TeO12,0.0
Tl3Mo15Se19,0.0
Tl3Bi,0.0
Tl3Au,0.0
Tl3Ag,0.0
Tl3(SbO3)8,0.0
Tl3(MoO4)2,0.0
Tl3(FeS2)2,0.0
Tl2WCl6,0.0
Tl2VF6,0.0
Tl3(SO4)2,0.0
Tl3Os3O10,0.0
Tl3Br,0.0
Tl3In,0.0
Tl3Hg,0.0
Tl3Co3O8,0.0
Tl3Cl,0.0
Tl3Cd,0.0
Tl3FeCl5,0.0
Tl(FeSe)2,0.0
Tm(BRu)4,0.0
Tm(Co2Ge)2,0.0
Tm2MgGe2,0.0
Tm2MgIn,0.0
Tm2MgIr,0.0
Tm2MgNb2O8,0.0
Tm2MgTc,0.0
Tm2MgTl,0.0
Tm2Mn12GaGe11,0.0
Tm2Mn12InSn11,0.0
Tm2MnC4,0.0
Tm2MnOs,0.0
Tm2NiIr,0.0
Tm2NiGe6,0.0
Tm2NiAs2,0.0
Tm2Ni2Sn,0.0
Tm2MgCu2,0.0
Tm2Ni12P7,0.0
Tm2Ni12As7,0.0
Tm2Nb2O7,0.0
Tm2MnS4,0.0
Tm2Ni17,0.0
Tm2MgCd,0.0
Tm2MgAl,0.0
Tm2Mg,0.0
Tm2Ge5Rh3,0.0
Tm2GaOs,0.0
Tm2GaCu,0.0
Tm2Ge6Pd,0.0
Tm2GaCo2,0.0
Tm2Ga8Co,0.0
Tm2Ga3Ni,0.0
Tm2Ga3Fe14,0.0
Tm2Ga2Fe15,0.0
Tm2Ga10Os3,0.0
Tm2Ga8Fe,0.0
Tm2IrRu,0.0
Tm2IrRh,0.0
Tm2IrPt,0.0
Tm2IrPd,0.0
Tm2IrOs,0.0
Tm2InPd2,0.0
Tm2HgOs,0.0
Tm2InOs,0.0
Tm2InHg,0.0
Tm2InAu2,0.0
Tm2InAg,0.0
Tm2In8Co,0.0
Tm2InNi2,0.0
Tm2FeSi4,0.0
Tm2NiRu,0.0
Tm2NiSn6,0.0
Tm2ZnAu,0.0
Tm2ZnCu,0.0
Tm2ZnHg,0.0
Tm2ZnIr,0.0
Tm2ZnOs,0.0
Tm2ZnPt,0.0
Tm2ZnRh,0.0
Tm2ZnTc,0.0
Tm3(Al3Os)4,0.0
Tm3(Al3Ru)4,0.0
Tm3(AlNi3)2,0.0
U2NiO6,0.0
U2NiGe2Pd,0.0
U2NiC3,0.0
U2Ni2Sn,0.0
U2Ni12P7,0.0
Tm2ZnAg,0.0
Tm3(GePd)4,0.0
Tm3(CuSi)4,0.0
Tm3(CuGe)4,0.0
Tm3(GaNi3)2,0.0
Tm2Zn17,0.0
Tm2V2O7,0.0
Tm2ReB6,0.0
Tm2PtRh,0.0
Tm2Pt,0.0
Tm2PdRu,0.0
Tm2Ru2O7,0.0
Tm2PdRh,0.0
Tm2PdAu,0.0
Tm2OsRu,0.0
Tm2OsRh,0.0
Tm2OsAu,0.0
Tm2PdPt,0.0
Tm2NiRuO6,0.0
Tm2RuAu,0.0
Tm2TlZn,0.0
Tm2TlHg,0.0
Tm2TlAg,0.0
Tm2TiCuO6,0.0
Tm2Te5,0.0
Tm2SiPd2,0.0
Tm2Si5Ni3,0.0
Tm2Si4Mo3,0.0
Tm2Si3Pd,0.0
Tm2SnAu2,0.0
Tm2Fe3Si5,0.0
Tm(Ni2P)2,0.0
Tm(NiGe)2,0.0
Tm(NiP)2,0.0
Tm(SiNi)2,0.0
Tm(SiNi5)2,0.0
Tm(SiPd)2,0.0
Tm(SiPt)2,0.0
Tm(SiRu)2,0.0
Tm(TiGa2)2,0.0
Tm(VFe5)2,0.0
Tm10In20Co9,0.0
Tm10In20Rh9,0.0
Tm10Mn13C18,0.0
Tm2(Al3Pd)3,0.0
Tm2(Al3Ir)3,0.0
Tm15S22,0.0
Tm12In2Fe3,0.0
Tm12Co5Bi,0.0
Tm12(OsC3)5,0.0
Tm12(MnC3)5,0.0
Tm11Sn10,0.0
Tm11Ge10,0.0
Tm11Cd45,0.0
Tm11(Ni10C)6,0.0
Tm12Al7Si,0.0
Tm(Mo3Se4)2,0.0
Tm(Mo3S4)2,0.0
Tm(MnSn)6,0.0
Tm(Fe5Mo)2,0.0
Tm(Fe2Si)2,0.0
Tm(Fe2Ge)2,0.0
Tm(CuSi)2,0.0
Tm(CuO2)2,0.0
Tm(Fe5Re)2,0.0
Tm(CuGe)2,0.0
Tm(CrSi)2,0.0
Tm(CoSi)2,0.0
Tm(CoGe)2,0.0
Tm(CoB)4,0.0
Tm2(Al3Rh)3,0.0
Tm(FeB)2,0.0
Tm(FeGe)6,0.0
Tm(MnSi)2,0.0
Tm(MnGe)2,0.0
Tm(MnAl2)4,0.0
Tm(MnAl)6,0.0
Tm(Mg4Al3)4,0.0
Tm(FeGe)2,0.0
Tm(GaFe)6,0.0
Tm(FeSn)6,0.0
Tm(FeSi)2,0.0
Tm(FeO2)2,0.0
Tm(GeRu)2,0.0
Tm2(B2Rh3)3,0.0
Tm2(Ga3Co)3,0.0
Tm2(Ga3Ir)3,0.0
Tm2CuAu,0.0
Tm2Cu2O5,0.0
Tm2CrS4,0.0
Tm2Cr2C3,0.0
Tm2CoSi2,0.0
Tm2CoRu,0.0
Tm2CuGe6,0.0
Tm2CoGe2,0.0
Tm2CoCu,0.0
Tm2Co7B3,0.0
Tm2Co7,0.0
Tm2Co3Si5,0.0
Tm2Co17,0.0
Tm2Co12P7,0.0
Tm2CuIr,0.0
Tm2CuOs,0.0
Tm2Fe17H3,0.0
Tm2Fe17C3,0.0
Tm2Fe17,0.0
Tm2CuO4,0.0
Tm2Fe14C,0.0
Tm2Fe12P7,0.0
Tm2CuRu,0.0
Tm2CuPt,0.0
Tm2CuPd,0.0
Tm2Fe14B,0.0
Tm(Co2B)6,0.0
Tm2AgRu,0.0
Tm2AgOs,0.0
Tm2AgHg,0.0
Tm2Al2Fe15,0.0
Tm23Se32,0.0
Tm2(Ni5B3)3,0.0
Tm2(Ni2B)5,0.0
Tm2(Ga3Rh)3,0.0
Tm2(NiB2)3,0.0
Tm2CdOs,0.0
Tm2Al3Si2,0.0
Tm2AlNi2,0.0
Tm2CdGe2,0.0
Tm2CdCu2,0.0
Tm2BeOs,0.0
Tm2AlGe3,0.0
Tm2B6Ru,0.0
Tm2B6Os,0.0
Tm2Au,0.0
Tm2AlZn,0.0
Tm2AlOs,0.0
Tm2B6Rh,0.0
Tl(FeS)2,0.0
Tl(CuTe)2,0.0
TiCu2,0.0
TiCu2P,0.0
TiCu2Sn,0.0
TiCu2Te3,0.0
TiCu3,0.0
TiCu3O4,0.0
TiCu4,0.0
TiCuNi,0.0
TiFe2Bi2PbO9,0.0
TiFe2As,0.0
TiFe2,0.0
TiFe,0.0
TiF3,0.0
TiCuSn,0.0
TiCuSiAs,0.0
TiCuSi,0.0
TiCuNi2,0.0
TiCuSnS4,0.0
TiCrCuS4,0.0
U2Ni12As7,0.0
U2Nb3Si4,0.0
TiCrS2,0.0
TiCrP,0.0
TiCrO3,0.0
TiCrCuSe4,0.0
TiCrN2,0.0
U2Nb3Ge4,0.0
TiFe3(PO4)6,0.0
TiGaNi6,0.0
TiGaPd,0.0
TiGaPd2,0.0
TiGaPt,0.0
TiGaRu2,0.0
TiGaTc2,0.0
TiGe2,0.0
TiGeIr,0.0
TiGeRh,0.0
TiGeRh2,0.0
TiGeRu,0.0
TiHg6P4Cl7,0.0
TiHg6As4Cl7,0.0
TiHg6As4Br7,0.0
TiH8C4NO10,0.0
TiGaNi,0.0
TiH24C6I3(N2O)6,0.0
TiGeSb,0.0
TiGeRu2,0.0
TiGaIr2,0.0
TiGaFeCo,0.0
TiGaFe2,0.0
TiFeH2,0.0
TiFeH,0.0
TiFeGe2,0.0
TiFeGe,0.0
TiFeCoSi,0.0
TiFeCoSb,0.0
TiFeCoGe,0.0
TiFe5O8,0.0
TiFe3Sb2(PO4)6,0.0
TiFe3Cu2(PO4)6,0.0
TiFe3Co2(PO4)6,0.0
TiGaCu,0.0
TiGaCo2,0.0
TiGa5Ni,0.0
TiGa2,0.0
TiFeSb,0.0
TiGa,0.0
U2N3,0.0
U2(AlSi)3,0.0
U2(AlSn)3,0.0
U2(CuNi)5,0.0
U2(Fe7B2)3,0.0
U2(Ga3Ir)3,0.0
U2(Ga3Rh)3,0.0
U2(InSn)3,0.0
U2(Ni7B2)3,0.0
U2(PdAu)5,0.0
U2(PdRh)3,0.0
U2(Si2Ni)3,0.0
U2(SiGe)3,0.0
U2(SnPb)3,0.0
U20Si16C3,0.0
U24CrFe3,0.0
U2AlFe3,0.0
U2AlCu3,0.0
U2AlCo3,0.0
U2AlCo2,0.0
U2Al6Pd3Pt,0.0
U2Al3Si,0.0
U2(Al3Rh)3,0.0
U2Al3Os,0.0
U2Al3Fe,0.0
U2Al19Co6,0.0
U2Al3Ga,0.0
U2(Al3Ir)3,0.0
U2(Al3Co)3,0.0
U17O31,0.0
U(WC)4,0.0
U(SiRu)2,0.0
U(WO4)2,0.0
U(SiPd)2,0.0
U(SiNi5)2,0.0
U(SiNi)2,0.0
U(SiAu)2,0.0
U(SiOs)2,0.0
U2As3Se,0.0
U(Zn10Co)2,0.0
U13O34,0.0
U12Rh4Se31,0.0
U12O19,0.0
U12Ge3Te20,0.0
U(Zn10Fe)2,0.0
U12FeNi,0.0
U11Se20,0.0
U(Zn10Rh)2,0.0
U(Zn10Os)2,0.0
U2AsN2,0.0
U2AsS,0.0
U2GaCo2,0.0
U2Ga8Ru,0.0
U2Ga3Cu,0.0
U2FeSe5,0.0
U2Fe3Si,0.0
U2Fe3Ge,0.0
U2Fe2Sn,0.0
U2Fe15Ge2,0.0
U2Fe12P7,0.0
U2FeS5,0.0
U2Hg5(AsO9)2,0.0
U2MnN3,0.0
U2MnAl3,0.0
U2Mn12P7,0.0
U2InRh2,0.0
U2InPt2,0.0
U2InPd2,0.0
U2InNi2,0.0
TiI3,0.0
U2CuSi3,0.0
U2Cu5Pb2(SeO5)6,0.0
U2Cl5O2,0.0
U2CN,0.0
U2C3,0.0
U2Be25Ga,0.0
U2Co12P7,0.0
U2B6Os,0.0
U2AsSe,0.0
U2B6W,0.0
U2Co3CuGe4,0.0
U2Cu3Si4Ni,0.0
U2Cu3NiGe4,0.0
U2Cu2As3O,0.0
U2CrN3,0.0
U2CoSe2S3,0.0
U2CoS5,0.0
U2CoO6,0.0
U2Co3Si5,0.0
U2Co3Si,0.0
U2Co3Ge,0.0
U2CoSi3,0.0
TiInAu2,0.0
TiSiIr,0.0
TiSiNi,0.0
TiSiOs,0.0
TiSiPd,0.0
TiSiRu,0.0
TiSiRu2,0.0
TiSiTc2,0.0
TiSnIr,0.0
TiSnPd2,0.0
TiTe2,0.0
TiTc2W,0.0
TiTc2Sn,0.0
TiTc2Sb,0.0
TiTc2Ge,0.0
TiTc,0.0
TiSnSb,0.0
TiSnRu2,0.0
TiSnRh2,0.0
TiSnRh,0.0
TiTc2Mo,0.0
TiSe2,0.0
TiSe,0.0
TiRh3,0.0
TiReTc2,0.0
TiReSi,0.0
TiReN3,0.0
TiRu,0.0
TiRe2W,0.0
TiRe(PO4)3,0.0
TiRe,0.0
TiPt8,0.0
TiPt3,0.0
TiRe2Mo,0.0
TiTeSe,0.0
TiRu3,0.0
TiSbRu,0.0
TiSb2,0.0
TiSb,0.0
TiSF,0.0
TiSCl,0.0
TiS2,0.0
TiTl3F6,0.0
TiV,0.0
TiZnNi(PO4)3,0.0
TiZnIr2,0.0
TiZnCu2,0.0
TiZnCu(PO4)3,0.0
TiZnBiO5,0.0
TiZnPO5,0.0
TiZnPt2,0.0
Tl(CuS)2,0.0
Tl(CuO)2,0.0
Tl(Cu3S2)2,0.0
Tl(CoSe)2,0.0
Tl(CoSb3)16,0.0
Tl(CoS)2,0.0
Tl,0.0
TiZnRh2,0.0
TiZn2WO6,0.0
TiZn2Pd,0.0
TiVN2,0.0
TiVCuS4,0.0
TiVCN,0.0
TiVC2,0.0
TiVO3,0.0
TiV4Si3,0.0
TiV4CuO12,0.0
TiV3Fe2(PO4)6,0.0
TiV3Cr2(PO4)6,0.0
TiV2Fe3(PO4)6,0.0
TiV15O24,0.0
TiV5(PO4)6,0.0
TiVO4,0.0
TiZn2IrO6,0.0
TiZn2,0.0
TiZn,0.0
TiWO4,0.0
TiWC2,0.0
TiVTc2,0.0
TiVSe4,0.0
TiVS2,0.0
TiVRu2,0.0
TiVP,0.0
TiW,0.0
Ti3CuO8,0.0
TiPd3,0.0
TiMnCr,0.0
TiMnIr2,0.0
TiMnN2,0.0
TiMnRh2,0.0
TiMnSb,0.0
TiMnSn4,0.0
TiMnV,0.0
TiMnV2,0.0
TiMnZn(PO4)3,0.0
TiMo,0.0
TiMo2,0.0
TiMo2W,0.0
TiNb3(AlC)2,0.0
TiNb(SnO3)2,0.0
TiNb,0.0
TiN,0.0
TiMnCo2,0.0
TiMoP2,0.0
TiMoO4,0.0
TiMoN3,0.0
TiMoC2,0.0
TiMoAs2,0.0
TiMo3,0.0
TiMoS3,0.0
TiMnAs,0.0
TiMnAl,0.0
TiIr3,0.0
TiInRh2,0.0
TiMn2,0.0
TiInPd2,0.0
TiInCo2,0.0
TiMn2Ga,0.0
TiMn3Cu2(PO4)6,0.0
TiMn3Cr2(PO4)6,0.0
TiMn3Co2(PO4)6,0.0
TiMn3(PO4)6,0.0
TiMn2W,0.0
TiMn2V3(PO4)6,0.0
TiMn2V,0.0
TiMn2Ni3(PO4)6,0.0
TiMn2Ge,0.0
TiMn2VAs4,0.0
TiNbB4,0.0
TiO,0.0
TiNiP2O9,0.0
TiNiP,0.0
TiNiO3,0.0
TiOs,0.0
TiP2,0.0
TiPd,0.0
TiP,0.0
TiPO4,0.0
TiP6(WO8)3,0.0
TiP4W3,0.0
TiP2W,0.0
TiPRu,0.0
TiNiH,0.0
TiNiAs,0.0
TiNi,0.0
TiNbTc2,0.0
TiNbS4,0.0
TiNbRe2,0.0
TiNbN2,0.0
TiNbFe4,0.0
TiNbC2,0.0
TiNiGe,0.0
TiNi5(PO4)6,0.0
TiNi3,0.0
TiNi2Sn,0.0
TiNi2Sb,0.0
Ti3Cu3O,0.0
TbPm3,0.0
TbPmIr2,0.0
TbPr3,0.0
TbPrFe4,0.0
TbPt,0.0
TbPt2,0.0
TbRe2,0.0
TbRe2SiC,0.0
TbReB4,0.0
TbRh,0.0
TbSb2,0.0
TbPd3,0.0
TbSb,0.0
TbS,0.0
TbRh2Pb,0.0
TbRh2,0.0
TbS2,0.0
TbPd2Pb,0.0
TbPd,0.0
TbNiGe2,0.0
TbNiGe,0.0
TbNiC2,0.0
TbNiB4,0.0
TbNiGe3,0.0
TbNiAs,0.0
TbNi3Sn2,0.0
TbNi3,0.0
TbNi2B2C,0.0
TbPRu2C,0.0
TbPPt,0.0
TbPPd,0.0
TbPOs2C,0.0
TbO2,0.0
TbNiSn2,0.0
TbNiSn,0.0
TbOs2,0.0
TbNi2,0.0
TePO5,0.0
TePd,0.0
TePd3,0.0
TePdSe,0.0
TePt,0.0
TePtSe,0.0
TeRh,0.0
TeW2S3,0.0
TeWCl9,0.0
TeWBr9,0.0
TeW2SeS2,0.0
TeW2Se2S,0.0
TeMoWSe3,0.0
TbNi,0.0
TbGePd2,0.0
TbGePt,0.0
TbGeRh,0.0
TbGeRu,0.0
TbH2,0.0
TbH3,0.0
TbHf,0.0
TbHfO4,0.0
TbHg,0.0
TbIn2Pd,0.0
TbIn2Ni,0.0
TbHoIr2,0.0
TbHoIn2,0.0
TbGeAu,0.0
TbHoHg2,0.0
TbHoCo4,0.0
TbHoAl4,0.0
TbHo3Fe8,0.0
TbHo3,0.0
TbHo,0.0
TbHoFe4,0.0
TbGe5,0.0
TbGe3,0.0
TbGaAu,0.0
TbGaAg,0.0
TbGa6,0.0
TbGaCo4,0.0
TbGa3,0.0
TbGa2Pd,0.0
TbGa2Ni3,0.0
TbIn3,0.0
TbGaNi,0.0
TbGe2Pt,0.0
TbGe2Pd,0.0
TbGe2Ir,0.0
TbGe2,0.0
TbGdRh2,0.0
TbGaPt,0.0
TbGaPd2,0.0
TbGaPd,0.0
TbGaNi4,0.0
TbIn5Co,0.0
TbIn7Cu5,0.0
TbMn6(Sn2Ge)2,0.0
TbMn2SiC,0.0
TbMn2,0.0
TbMnAl,0.0
TbMgSn,0.0
TbMgRh2,0.0
TbMgPd,0.0
TbMgNi,0.0
TbMgTl2,0.0
TbMgHg2,0.0
TbMnB4,0.0
TbMnGe,0.0
TbNdFe4,0.0
TbNdFe17,0.0
TbNdFe14B,0.0
TbNdCo14B,0.0
TbNd3Fe34,0.0
TbMnFe,0.0
TbNd,0.0
TbMoC2,0.0
TbMnO3,0.0
TbNd(NiGe2)2,0.0
TbMgCd2,0.0
TbInPt2,0.0
TbInPt,0.0
TbInPd2,0.0
TbInNi,0.0
TbInCu2,0.0
TbInAu2,0.0
TbInAu,0.0
TbInCu4,0.0
TbMgCo4,0.0
TbInRh,0.0
TbMgAu,0.0
TbMgAg,0.0
TbMg3,0.0
TbInRh2,0.0
TbMg2Cu9,0.0
TbLuRh2,0.0
TbLuHg2,0.0
TbMg2,0.0
TbGa2Ni,0.0
Th4H15,0.0
Th4SiGe,0.0
Th4UTe5,0.0
Th5Bi3,0.0
Th5C4,0.0
Th5Fe19P12,0.0