formula,band_gap
NaLaGdSbO6,2.2363000000000004
NaCaTbSeO6,2.2364
Nb5P7O30,2.2367
LiV2F5,2.2369
Na4LaNb(SiO4)3,2.2372
Na2In2SiS6,2.2375
SrBiNO5,2.2375
NdTa3O9,2.2375000000000003
MnH9CNCl3O2,2.2377
NaLi3Ti2Fe2(PO4)6,2.2378
SrCo(GeO3)2,2.2382
Li3Ni4O4F3,2.2384
Na2Cd(GeS3)2,2.2385
MgCr(PO3)4,2.2385999999999995
CaCdS2,2.2389
K2Ge2S5,2.2391
ReAsC5SNO5F7,2.2391
Na3VBAsO7,2.2396000000000003
SrTa2H2O7,2.2398
Sb3PO7,2.24
NdSbO4,2.2404
BaZr2Ti3Pb4O15,2.2404
LiMgCr3Se2(SO6)4,2.2407
NaZnSn3P3(SO8)3,2.2409
MgVAs2O7,2.2409000000000003
Na14Ca4In4Si5S7O48,2.241
Na10Zn4Ga4Si3(S3O16)3,2.241
NaSc2Sn2P3(SO8)3,2.2411
TiZn(SO4)3,2.2411
NaLaNb3SiP5O24,2.2412
Rb2NdAuCl6,2.2412
Na7TiZn3P5SO24,2.2417
Ba2NaIO6,2.2417
Ba9(LaS6)2,2.2418
Rb3V5O14,2.2424
Li6Ti2O7,2.2426000000000004
Zn3GaAgS5,2.2430000000000003
MgSb3P3O13,2.2432
VCrMoO7,2.2432000000000003
Ti2Zn3O7,2.2433
Nd2V2H2Se4O17,2.2434000000000003
Ba9In4(SF)10,2.2437
Mg14ZnCdO16,2.2437000000000005
NaNdHfTiO6,2.2438
LaTa3O9,2.2438
LiAlFeO3,2.244
PSeCl9,2.244
P3IrO9,2.2440999999999995
Li3ScN2,2.2440999999999995
Na6Nb4Si9Ge4(SO16)3,2.2441000000000004
Sn3(P2O7)2,2.2445000000000004
NaNb3O8,2.2449000000000003
Mg30MnCdO32,2.2454
MgFe4H42(S3O23)2,2.2454
Sr3B3N5,2.2454
NaCaDySeO6,2.2461999999999995
Tm2Zr2O7,2.2464000000000004
LiInI4,2.2465
Sn2OF2,2.2466
UH2(SO5)2,2.2467
TlCl2,2.2468
YFe6Bi(BO3)8,2.2470000000000003
LiGaI3,2.2473
Na3Ca4Nb2P3(SO6)6,2.2473
K3V2P2O8F3,2.2475
Na3AlSi3Sn3(SO8)3,2.2478
NdTi12(Bi5O16)3,2.248
Na5ReO6,2.248
NaZnGe3P3(SO8)3,2.2482
Na7Mg7Fe5(PO4)12,2.2482
RbSbO2,2.2483000000000004
TiZnO3,2.2487
SBr,2.2489
Ti(Si2O5)2,2.2489
Na3Cr2P2O8F3,2.2489
VCd2BiO6,2.249
CaP2W2O9,2.2492
Sr2CeTiO6,2.2495
P4S(NF)6,2.2497
Na30Mg4Nb20Si33(SO48)3,2.2502
K6Sb2H18S8O9,2.2503
Na3Y2Nb2SiP5O24,2.2508
XeNO3F,2.2512
Rb2YAuCl6,2.2513
RbNa3SnO4,2.2514
LiLaTa2O7,2.2515
TbTa3O9,2.2515
Na2TiIn(PO4)3,2.2519
Li2VO2F3,2.252
UTe6(OF5)6,2.2523
SrTiFe(PO4)3,2.2525
SbP(Cl3O)2,2.2525
TaTl3Se4,2.2527
Li4Mn7(OF7)2,2.2529
Na5Y2SiSn2P5O24,2.2531
LaTi3(BiO4)3,2.2536
Na6Hf4Si7Sn4S5O48,2.2539
TmI3,2.2545
SrTh(PS4)2,2.2547
Sb3Cl9OF4,2.2549
NaPrHfTiO6,2.2549
Sr2Bi2O5,2.2554000000000003
Ta4FeCoO12,2.2555
Na5Sc3Ge(PO4)6,2.2558
VBiO4,2.2564
Na7NbAl3Si3(PO8)3,2.2564
Na2TaGa3Si2(SO6)4,2.2566
Nd2Ti3(BiO6)2,2.2573
Rb2ErCuCl6,2.2573
MnZn(SiO3)2,2.2575
Mg(GaO2)2,2.2577
Sr3ScRhO6,2.2581
NaLa(GaS2)4,2.2582
NaNb2Al2P5SO24,2.2585
TiCdFe(PO4)3,2.2585
Ta12MoO33,2.2586
MgHN,2.2587
ThNF,2.2590000000000003
Na8Ga2O7,2.2590000000000003
LiNi6O6F,2.2594000000000003
Na2Lu3Te4(IO4)3,2.2596
VH12(ClO2)3,2.2597
CaSb2P2O9,2.2597
Sr8Si2PtO14,2.26
Mg3Ge3(MoO6)2,2.2601
Na4Nb3GaSi5SO24,2.2606
Na2Te3Mo3O16,2.2606
V2CdO6,2.2611
UCO5,2.2611
Sm5Si3NO12,2.2611000000000008
Sm2TeO6,2.2613000000000003
PdC2S2(O4F)2,2.2614
Pb4SBr6,2.2614
TeS7Cl2,2.2614
Na2Zn3S4,2.2614
MgTe(PbO3)2,2.2616
Na2U(MoO5)2,2.2616
Mn4H2C8O17,2.2619
Rb3Mo12PO40,2.2622
Y3TaSiS5O24,2.2624
SbI(OF4)2,2.2627
PmPaO4,2.2631999999999994
NiP2WO9,2.2634000000000003
NaYS2,2.2635
Li4Mn3(OF3)2,2.2635
Na2Ta4Si7Sn4S5O48,2.2636
Rb2AgPS4,2.2636000000000003
LiLaTiO4,2.2637
TaP4S6Cl5,2.2644
Na2Ca4Zr4SiS11O48,2.2645
Ba2MgMoO6,2.2648
LuCrO3,2.2649000000000004
Na6Sc4In4Si3(S3O16)3,2.2659
Na4Co3P4O15,2.266
NaCrCSO7,2.266
U(BO3)2,2.266
Tl7Bi3I16,2.2663
RbSb2PO8,2.2663
Na10Y6Nb2Si7S5O48,2.2664
Na2Zn(GeS3)2,2.2665
MgZn3S4,2.2668
NbTlTeO6,2.2669
Li7CoOF7,2.267
YAl2N3,2.2673
Na10Ca6Zr2Si3(S3O16)3,2.2675
Na2ScNbSi2SO12,2.2677
NbPCl10,2.2683
RbPrS2,2.2686
NaLaZrTiO6,2.2686
Sr2NbCrO6,2.2687
Na2YNb3Si2(PO6)4,2.269
Na3Mg8Nb4P3(S5O24)3,2.2693
Na4Mg2In2SiS5O24,2.2694
Na5Sc3Si3Ge(SO8)3,2.2696
NaLaGaP(SO6)2,2.2697000000000003
GdBr3,2.2701
VH12SO10,2.2702
Na14Sc4Si9Ge4(SO16)3,2.2702
Cs3H5Pd,2.2703
Pr9Al5S21,2.2704
TiP2O7,2.2704
NiH18C4S6(N2O)4,2.2707
NaTbMnWO6,2.2708000000000004
BaZnSnS4,2.2711
Na3InS3,2.2716000000000003
LiNb(PO4)2,2.2718000000000003
RbSmS2,2.2721
ZrTi2O6,2.273000000000001
Ta3Sb(PO4)6,2.2733
TaH6C2SeCl5,2.2733
Na14Y4Si9Sn4(SO16)3,2.2742999999999998
Na4TiInSi2PO12,2.2745
SrZnCr(PO4)2,2.2745
RbNbTeO6,2.2745
PI3,2.2746
MgV2PbO7,2.2750000000000004
Li2SnO4,2.2753
Cs2Th(PS3)3,2.2753
Nd2NbGaO7,2.2756
Sb3O4F,2.2757
BPS4,2.276
V2Pb14Cl4O17,2.2763
Na5La3NbSiP5O24,2.2766
Na3Nb2Zn4P3(SO6)6,2.2768
Na2Nb3InSi2(PO6)4,2.2768
PrPS4,2.277
Na30Ca20Ta4Si9(S3O16)9,2.2772
S2NO,2.2777
Rb2MnV2O7,2.2777000000000003
LiInGeO4,2.2778
LiNi2OF3,2.2779000000000003
Mg2Ta4Si3(SO6)6,2.278
Na3PrTi2Nb2O12,2.2781
NaFe(SeO3)2,2.2783
Na3NbAlSi2PO12,2.2785
LiFe4OF7,2.2788
Na10Sc7NbSi6(SO8)6,2.279
ZrPbO3,2.2792000000000003
AgCSN,2.2797
Rb2GeS3,2.2799
Na5Ca2Fe3(PO4)6,2.2799000000000005
Rb2Mo(OF2)2,2.28
Na6Mg5NbP3(SO6)6,2.2801
SrH2N2O5,2.2801
K2P4H6PtO11,2.2802
SrPrYMnO6,2.2802
Na10Nb6Ga2Si11SO48,2.2807000000000004
ReN(OF2)3,2.2809
TlSb3F18,2.2817
Na2Mg(SbO3)2,2.2822000000000005
LiNdTiO4,2.2825
TcC5IO5,2.2829
Rb10Al24Cd7(SiO4)24,2.2832
Rb3Er3(PS4)4,2.2833999999999994
Na3LaNb3Si3(PO8)3,2.284
NaCaZrNbO6,2.284
NaLiTe,2.2840000000000003
Sr3MoO6,2.2841
SnBO3,2.2846
Na2Sc3TaSi2(SO6)4,2.2852
RbLaTa2O7,2.2853000000000003
SrZrTiSnO6,2.2854
Ta2SnO6,2.2854
LiAlS3(Cl2O3)2,2.2856
Tl3PS4,2.2857000000000003
La2MoO6,2.2858
Sm3NbS3O4,2.286
NaMoAsO6,2.2861
Tl2Ni(CN)4,2.2866
ScSnP(SO6)2,2.2873
ReC4IO4,2.2874000000000003
Rb2U(MoO5)2,2.2880000000000003
Rb2NdCuBr6,2.2883000000000004
Na3PS4,2.2883000000000004
NaMo(PO4)2,2.2884
UZn4P2(H2O5)3,2.2888
Sr2SeS,2.2889
Tl2Cr2O7,2.2892
Rb2SmAuCl6,2.2894
LiCeF5,2.2896
Na3ScTiSi(PO6)2,2.2898
Na9Ca5TaSi3(SO6)6,2.29
Na6Mg3ZrSi2(SO6)4,2.29
NaMnCrF6,2.2911
Na6Nb2Ga2Si5SO24,2.2912
GdFe3(BO3)4,2.2915
Te2Xe(OF5)2,2.2917
RbNbCl6,2.2919
Na3Sc2Nb2SiP5O24,2.2919
Na5Sc2Nb2Si3(PO8)3,2.2921
La3VH3O8,2.2922
Ta6Mn2FeO18,2.2926999999999995
Na18Mg4Ta20Si27(SO16)9,2.2927
P2S3,2.2929
Li6FeO4,2.2934
In2WO6,2.2936
RbAuC2(SN)2,2.2937000000000003
SnH14C4(Br2N)2,2.294
MgTe4H4(O3F4)2,2.2941
RbNaS,2.2945
NaHf3TaSi3(SO8)3,2.2947
Na3NbGa3P5SO24,2.295
SiI2,2.295
SrLaTaNiO6,2.2954
NaYNb3SiP5O24,2.2955
RbTi3FeO8,2.2955
SmPaO4,2.2955999999999994
Na10Y7NbSi6(SO8)6,2.2956
Na3La2Sn2P5SO24,2.2958
LiTi2(PO4)3,2.2960000000000003
Na6Ca2Zr6Si5S7O48,2.2962
NaLaFeWO6,2.2965
CsVZnF6,2.2966
Tl2Mo2P2O11,2.2966999999999995
LiVP2H5O9,2.2968
V2As3H17C4N8O17,2.2969
SmSbO4,2.2974
Na2Al2In2SiS5O24,2.2982
Ti2MnZnO6,2.2983
LiV2FeO7,2.2984
Li4NbFe(WO6)2,2.2989999999999995
Mn2Si(H2O3)2,2.299
LiSn3Sb(PO4)6,2.2990000000000004
TaZn2N3,2.2992
V4Fe2O13,2.2993
NiH16C4(N5O)2,2.2999
BaY2NiO5,2.3003
Ti4Pb2O9F2,2.3006
ZnMoO4,2.3008
NiO,2.3008999999999995
Na5Ca2Ga2P3(SO8)3,2.3009000000000004
NaAl2Sn2P3(SO8)3,2.3009000000000004
Rb2LaAuCl6,2.301
PrTi6Bi7O24,2.3012
Na5Ga3Si3Ge(SO8)3,2.3012
Ag2S2O7,2.3016
LuBiO3,2.3018000000000005
Lu2PbS4,2.302
Ni(NF7)2,2.3025
Rb3SbSe3,2.3028
UH4(SeO5)2,2.3029
Sc2Cd3(GeO4)3,2.3032
LiTi2V3O12,2.3032
UNiH14O9F4,2.3034
CsRbMo3P3O17,2.3035
DySbO4,2.3042
Na2Nb3GaSi2(PO6)4,2.3045
TlV3(SeO6)2,2.3046
NaAuS,2.3046999999999995
LiFe7(OF3)3,2.3048
NaTiGaP2SO12,2.305
Rb2Si2Se5,2.3052
RbBaPS4,2.3055
Na6Ca3SnP4(SO12)2,2.3059
Na2FeH7(SO6)2,2.306
Na6Hf4Nb4Si9(SO16)3,2.3064
Cs2PdF6,2.3065
ReTeSeCl4,2.3069
NaTbTi2O6,2.307
Ba2CuBrO2,2.3073
TlFe(SeO4)2,2.3073
Na4CaSn3(PO4)6,2.3075
UP3H7O8,2.3075
RbTbS2,2.3079
Li6Ca12Mo4N16O3,2.3083000000000005
Na2ScNb3Si2(PO6)4,2.3084
Na2CoSiO4,2.3088
RbLiSe,2.3089
Rb2YTi(PO4)3,2.3093000000000004
Na14Y4Si9Ge4(SO16)3,2.3093000000000004
Cs3AlO3,2.3104
Na3Mg4Nb2P3(SO6)6,2.3104
Fe(HO)2,2.3104
V2PH8(NO4)2,2.3106
ZrMnTlF7,2.3108
Sr2ZnMoO6,2.3108
Li4Si4Bi2O13,2.3109
Mg2GeS4,2.311
Na4LaNb3Si4(PO12)2,2.3114
Y2Ti3O9,2.3114000000000003
ThV2SeO9,2.3117
Na5Y3NbSiP5O24,2.3118
Na9Mg5TaSi3(SO6)6,2.3123
P2Pb3S8,2.3126
Zr4N3OF5,2.3129
KCoH3(CO2)3,2.313
Ti(Bi3O5)4,2.313
LiMg14WO16,2.3137
Ta2PbO6,2.3142
NaZr2Ti2P5SO24,2.3142
Tl5BrCl4,2.3144
Na3ZnSn3P5SO24,2.3147
VH16C6N6O7F2,2.3148
NbBiO4,2.3148
Na10Y2Nb6Si11SO48,2.3149
Na3Mg2Ti2P3(SO8)3,2.315
Na4NbAl3Si3(SO8)3,2.3152
Sb2Cl5F4,2.3152
Na6Zn7Ge(SO4)12,2.3153
NbC2NCl8,2.3156
Na3ScNb3Si3(PO8)3,2.3159
Na5Ti2Ga2SiP5O24,2.3161
Ca2La4Ti5O18,2.3161
Mg2FeWO6,2.3162000000000003
RbPPbS4,2.3163000000000005
Na2Zr4Ga4Si3(S3O16)3,2.3166
KPPbS4,2.3166
Na6Ta4In4Si7S5O48,2.3168
NaNb3GaSiP5O24,2.317
SrCrBi12(Mo2O17)2,2.3173
Sr3(BS3)2,2.3176000000000005
Na8NbIn3Si5SO24,2.318
Na14Mg6Zr2Si5S7O48,2.3183
BaZn2As3HO11,2.3183
Cs2AgSbF6,2.3185
CsBiO2,2.3187
Na6Mg3GeP4(SO12)2,2.3187
NaCaGa(SO4)3,2.3187
AlFe3Se2ClO8,2.3191
Zn2As(HO2)3,2.3191
K2ZnSe2,2.3191
Rb4V5CdClO15,2.3192
ZnHgC4(SeN)4,2.3193
Na3YNb3Si3(PO8)3,2.3197
RbLaSe2,2.32
Na14Mg5Ge3(PO4)12,2.3200000000000003
TbBS3,2.3202
Cr4Si2Cl2O7,2.3203
ZnH2C4(S3N2)2,2.3203
Mg3Ni3(AsO4)4,2.3203
RbNO2,2.3204
Y3NbP2(SO6)4,2.3205
P3H2CN2Cl11,2.3206
Li4Si2NiO7,2.3215
Na12Mg2Nb10Si15(SO24)3,2.3216
RbDyS2,2.3216
NaSO2,2.3219
Mg(SiO2)8,2.322
TiMnFe(PO4)3,2.3224
TaInBi2O7,2.3226
K2YCuBr6,2.3227
Rb4MgFe8H6(Se8O25)2,2.3228
Na10Ca3Zr5Si6(SO8)6,2.3236
Na3Ag3W2(OF)6,2.3237
Sm3Si2S8Br,2.3239
K3VPCO7,2.3245
NaErS2,2.3245
Na7Nb2In2Si5PO24,2.3248
Na3Ti3Ga(PO4)6,2.3254
Na2CrAgF6,2.3255
Rb2TiHgF6,2.3262
Na2Mn(SiO3)2,2.3266000000000004
MgTa2CoO7,2.3267
Rb2AgAsF6,2.3267
Zn2GeS4,2.3269
Na6Sc5Ta3Si6(SO8)6,2.327
Rb2LiSbBr6,2.3274
ReTeSCl4,2.3274
Na3Ti3GaSi3(SO8)3,2.3275
NaSc2Nb2P5SO24,2.3275
CoH6(SeO4)2,2.3279
Na2Al4In4SiS11O48,2.3280000000000003
Na6Zr4Nb4Si9(SO16)3,2.3282000000000003
In3Sb5O12,2.3283
Mg4Nb2(SO4)9,2.3291
NiH20PtC4(NO3)4,2.3293
Na3AlSi2GeSO12,2.3294
TaGa3SiS5O24,2.3297
Ta3Bi7O18,2.3299000000000003
RbCu2H2C3N3O,2.3302
Sr10Mg5Mo3(WO15)2,2.3303000000000003
Rb2Sb8O13,2.3306
SbAs3(S2F3)2,2.3306
Ca3Hf2Fe2SiO12,2.3307
MnFeSiO4,2.3307
Na2LiTi3Al(PO4)6,2.3310000000000004
Sr2CeHfO6,2.3311
Na6ZnSi2Sn3(PO6)4,2.3312
Na10Zn3Sn5(PO4)12,2.332
Na2Ta4Nb4Si9(SO16)3,2.3320000000000003
CsNbCl6,2.3321
Mo12PH24C6N3O40,2.3325
Ba3LiTi5(SbO7)3,2.3328
Na6La3NbSi4(SO12)2,2.333
Sr3Ta4Ti4O21,2.3331
Nd3Si2S8I,2.3333
NaDy3Ti2(SbO7)2,2.3333
Na2Hf4Ta4Si7S5O48,2.3333
Sr2Li2NiO4,2.3334
LiFeH8(SO6)2,2.3339
MgBi(WO4)2,2.3339000000000003
Na3Nb3InSi3(PO8)3,2.3343000000000003
Rb2NaIrF6,2.3345
NaScNb3SiP5O24,2.3348
BaCa3O4,2.3351
Sr2CeZrO6,2.3353
RbHoS2,2.335500000000001
NaLaTa2O7,2.3359000000000005
NdFe6Bi(BO3)8,2.3360000000000003
Sr5Re3ClO15,2.3364000000000003
Sc2Ti2SiS5O24,2.3365
KV3(SeO6)2,2.3366
Nb2WO8,2.3371
UH12(NO4)2,2.3374
Rb3PdF5,2.3374
ZnBi2P2O9,2.3383000000000003
Na3ZnSn(PO4)3,2.3386
TaPCl10,2.3387
Zn2Ge3O8,2.3392
Sr2GdGaO5,2.3393
Na6NbZn5P3(SO6)6,2.3394
LiSnPHO5,2.3396
Li6Cr(BO3)3,2.3399
Na8NbGa3Si4(PO12)2,2.34
Li3Sb3P8O29,2.3401
NaGe2N3,2.3402
NbIn3P2(SO6)4,2.3403
TiZnCr(PO4)3,2.3403
Li8PbO6,2.3403
Na3TiGaSi(PO6)2,2.3404
TbSbO4,2.3405
Na6Sc4Ta4Si7S5O48,2.3405000000000005
Sr3Pr4O9,2.3406
Cs4SnO4,2.3406
Nb2Zn4(SO4)9,2.3408
Na10Nb2Ga6Si7S5O48,2.3409
OsXeO3F8,2.3412999999999995
Sn4HgB44H124C24(N4Cl)2,2.3413
B36O5,2.341600000000001
Sr2MgTeO6,2.3417000000000003
Na2Mg2Zr6Si3(S3O16)3,2.3417000000000003
Li4UC3O11,2.3419
NaNb2In2P5SO24,2.3421
V2S2O11,2.3422
Na3Y2Ti2P5SO24,2.3422
Na9Mg2Nb10Si9(PO8)9,2.3424
FeH8N3O13,2.3425
Na3NbAl3P5SO24,2.3429999999999995
Rb2Mo(SO)2,2.3431
Si6BiH54C18N4Cl,2.3435
Sr2CuBrO2,2.3439
Na2Zr4Si3(SO8)3,2.3441
V2Cd6Se5O21,2.3444
RbLiVPO5,2.3445
LiFe4P7O24,2.3447
Na2Zr8Si5S7O48,2.3453
Na2NbGaSi(PO6)2,2.3453
Na3Nb3AlSi3(PO8)3,2.3454
LiTi2P4H3O16,2.3456
Ca2Ta4Si3(SO6)6,2.3458
Rb2PrCuCl6,2.3461000000000003
Sc3TaSiS5O24,2.3464
Ag2SO3,2.3467
Na5Nb3InSi5PO24,2.3467
LiFeH12(SO7)2,2.3468
Ni(IO3)2,2.3469999999999995
Na2Zr4Ta4Si7S5O48,2.347
LiSnPO4,2.3476
SrTi(PO4)2,2.3476
Si(Bi3O5)4,2.3477999999999994
HoFe3(BO3)4,2.3479
NaYTi2O6,2.3484000000000003
Ca2IN,2.3485
ZnFeF5,2.3487
SrLi4NiO4,2.3488
Tl5Re6S8Cl7,2.349
Y3VH3O8,2.3493
NaZrNbSnO6,2.3496
P6Pb3Xe11F58,2.3499
Na6Al2In2Si3(SO8)3,2.35
Na7Y2Nb2Si5PO24,2.3509
Na10Al4Si7Sn4S5O48,2.351
MgTiO3,2.3514
Rb2U2Mo3O16,2.3517
MnZnF6,2.3517
RbCd(NO2)3,2.352
NbBi(TeO4)2,2.3520000000000003
RbErS2,2.3521
Na3LaTiSi2SO12,2.3528
Na3InGe3(PO4)6,2.3532
NaDyTi2O6,2.3542
NaCo2P3O10,2.3543
Tl3VO4,2.3544000000000005
Na2MgNb(PO4)3,2.3547
Na6Mg4Zr4Si3(S3O16)3,2.3555
Na4AlFe3O8,2.3557
NaZrTi(PO4)3,2.3562
Li4SnS4,2.3564
Li6I3N,2.3574
Rb2Mo3P3O17,2.3576
V2H28C12Cl2O7,2.3578
Sn2P2O7,2.3579000000000003
LiMo6Cl13,2.358
LiMnFeF6,2.3587
Na3YSn3(PO4)6,2.3587
MgBi2P2O9,2.3591
VPH5NO6,2.3592
Na8Ca2Sc2Si3(SO8)3,2.3594000000000004
Li6CoNiP2(CO7)2,2.3595
Na6ZnSi2Ge3(PO6)4,2.3596000000000004
Na3MgSn3P5SO24,2.3597
Li3NiF6,2.3599
YPaO4,2.3601
Tl2InGaF6,2.3602
Tl2SiS3,2.3603
Na6Mn2V4O15,2.3606000000000003
KNdTiO4,2.3607
Gd3TaO7,2.3607
CsTiCoOF5,2.3608
PrCuO2,2.3609
Pr2S2O,2.3612
Ti(GaO2)4,2.3612
AlInS3,2.3614
NaTmS2,2.3614
Na9Ca2Nb10Si9(PO8)9,2.3618
KSn2Br5,2.3618
SrLaTaMnO6,2.3618
LiLa3Ti2O9,2.361999999999999
NaSr2Nb5O15,2.3621
NaMnVO4,2.3623
Na12Ca4Nb2Si3(PO6)6,2.3626000000000005
NaIn(GeO3)2,2.3627
MgCrO4,2.3629
Na2NbAlSi(PO6)2,2.363
Si4Bi2AsH38(C7Cl)2,2.3631
Bi3IO4,2.3631
Na3NbIn3P5SO24,2.3632
Te7(OF5)6,2.3632
YSbO4,2.3634
Na5MgSiSn3P5O24,2.3635
Na5NbAl3SiP5O24,2.3637
NaH6C4SN3O5,2.3638
SiBr2,2.3639
SrCaZrTiO6,2.3639999999999994
Mn3Fe2(SiO4)3,2.364
NbPb2Se2ClO8,2.3641000000000005
Ni3Mo2SeO11,2.3643999999999994
Li4V(PO4)2,2.3644
InClO,2.3645
MnF2,2.3648
Na2La4Zr4Si3(S3O16)3,2.3651
Ta2BiO6F,2.3652
MgVF4,2.3652
Co2H2CO5,2.3652
LiGaAs2O7,2.3654
Zn3Co2(SiO4)3,2.366
Tb4(SiS4)3,2.3660999999999994
RbB2SbO6,2.3667
SnIBr,2.3668
Na8Ta2Zn2Si5SO24,2.3669999999999995
SiGe2(SO6)2,2.3672
MgTiFe(PO4)3,2.3679
RbTmS2,2.3680000000000003
MgNb5(PO4)9,2.369
Na2VCoF7,2.3694
Na2Nb4Se4O19,2.3695
Tl3Bi2I9,2.3696
Na3In2(AsO4)3,2.3697
Sr2MgV2(Si2O7)2,2.3698999999999995
VPbClO3,2.3699000000000003
Ni3B7IO13,2.370000000000001
Tl2AgI3,2.3701000000000003
NaBi3(ClO2)2,2.3702000000000005
NaNb3InSiP5O24,2.3703
SmBN2,2.3704
Na3NbGaSi2PO12,2.3706
Ca2AlBiO5,2.3709
NaBiTeO5,2.3709
Zn(H2N)2,2.3711
TiZnFe(PO4)3,2.3714
Na3Y2Ge2P5SO24,2.3715
Sr3Ta7Si(BiO4)9,2.3719
Li6Mn5Fe(BO3)6,2.371900000000001
Cs3Re6(SCl)7,2.3721
NaYTiO4,2.3722
ScTa3(PO4)6,2.3725
Na10NbIn7Si6(SO8)6,2.3727
Na2TaAl3Si2(SO6)4,2.3728
Li4MnCo3(PO4)4,2.3728
MgVFeMo3O14,2.3731
Na6La4In4Si3(S3O16)3,2.3732
MgTe2O5,2.3736000000000006
Pb2BrOF,2.3740999999999994
Ta3GaSi3(SO8)3,2.3744
NaAl2Ge2P3(SO8)3,2.3745
CuW3Cl7,2.3749
CdH2C4(S3N2)2,2.3751
VPb2Se3O10,2.3759999999999994
Na7MgSi3Ge3(PO8)3,2.3761
Rb4GeO4,2.3767
K2RbSbI6,2.3768
Cs2RbSbI6,2.3768
NaCoPO4,2.3769
Gd2GaSbO7,2.3774
NaSrHfNbO6,2.3776
Li6Cr3Fe(PO4)6,2.3776
Na4Sn3O8,2.3778000000000006
RbFe(MoO4)2,2.3779
MgVF5,2.378
NaTi2(AsO4)3,2.378
Ti3(WO6)2,2.3785
Li8TeO6,2.3786
MgGe7N10,2.3789
Li9Y(NiO4)2,2.3789
LiBi3(BrO2)2,2.3789
Rb3SbO3,2.3795
Rb3SbI6,2.3797
LiCr6P7O24,2.3798
Sn(SO4)2,2.3798
Na4Y3Nb(PO4)6,2.3798000000000004
Mn3Al2(GeO4)3,2.3798000000000004
Na2MnH4(SeO5)2,2.38
MgO2,2.3801
Na2Nb8Si9(SO16)3,2.3801
Na3SmTi2Nb2O12,2.3804
NaMoO2,2.3805
BaCr2O7,2.381
Ba3Te2O9,2.3816
SmPtF7,2.3817
RbNaH2,2.3818
Na3MgTaSi2SO12,2.3825000000000003
Ba(NO2)2,2.3829
Na2Ca2Zr6Si3(S3O16)3,2.3829
LiLaMg6O8,2.383
Li10Si(PS6)2,2.3831
Na3AlSe3,2.3831
Ca3Fe2(SiO4)3,2.3833
NaLa2TaTi2O10,2.3842
Pr3Sc2(FeO4)3,2.3843
Sr2CuClO2,2.3843
Na10Mg3Sn5(PO4)12,2.3851
Ba2ZnMoO6,2.3852
Na18Ta8Zn4Si15(SO24)3,2.3854000000000006
Lu2ZnS4,2.3856
Na3ScNbSi2PO12,2.3859000000000004
Tl2Mo3SeO12,2.3865
TiNbBiO6,2.3865000000000003
Mg8Mn3O11,2.3869000000000007
Na3La2Ti2P5SO24,2.3871
MnSe2O5,2.3872
BaTi(BO3)2,2.3877
NaHoTi2O6,2.3878000000000004
Tb2MgW2(ClO4)2,2.3879
Pb3(BrO)2,2.3882
RbSn2Br5,2.3883
Li2MgTi3O8,2.3892
ZnSn2(PO4)2,2.3894
Na2NbGaSi2SO12,2.39
NiSn(PO4)2,2.390000000000001
Na4YNb3Si4(PO12)2,2.3901
Na30Ta4Zn20Si9(S3O16)9,2.3905
Na6Zn3GeP4(SO12)2,2.3906
Sm4Si2Se3O7,2.3907
MgFe2(SiO3)4,2.3908
ReC5BrO5,2.3911
Na7ZnSi3Sn3(PO8)3,2.3914000000000004
Rb2U(N2O7)2,2.3915
Al2Cd(Si5O12)2,2.3919
Pr4Si2Se3O7,2.3921
SrLiBS3,2.3921999999999994
Ca2YBiO5,2.3923
Na3Ca7Ta3Ti7O30,2.3925
Na2LaTa3Si4(SO12)2,2.3928000000000003
Li3V5O14,2.3933
LiLa5Si4N10O,2.3934
SiSnO3,2.3936
Nd3Sc2(FeO4)3,2.394
Na18Ca4Ta8Si15(SO24)3,2.3945
MgCr2O7,2.3945
NbSbO4,2.3948
BaCaVF7,2.3948
Na3SbS3,2.3949
Na6Sn2C4SO16,2.3951
Na3V(SO)2,2.3954
Tb14Ti10O41,2.3958000000000004
Tb10Ti6O27,2.3959000000000006
Na6Mg2Ta4Si6(SO12)3,2.396
ReS2ClO9,2.396
NaSr4(SbO4)3,2.396100000000001
NdBS3,2.3963
P3Pb5IO12,2.3965
Ba2GaSbS5,2.3967
UCr4(H3O4)6,2.3974
Na7CaIn3Si3(SO8)3,2.3976
UH24C8N2(Cl2O)2,2.3977
Nb2Zn2CoO8,2.3978999999999995
V2SnO7,2.398
Sr5(IO6)2,2.3981
Li8Mn(O2F)2,2.3987000000000003
P2H9(CBr)3,2.3988
Sb2H18C3(IN)9,2.3989000000000003
Na4La3Nb(PO4)6,2.3994
PH9PtC3Cl2,2.3994
NaCaInWO6,2.3994000000000004
Sr5Re3BrO15,2.3998
RbLuS2,2.3998
Sr6Ta2O11,2.3999
KTbPrNbO6,2.3999
Li6CoO4,2.4
Ti2Zn(PO5)2,2.4001
Li9Al(NiO4)2,2.4003000000000005
Na6CaSn7(PO4)12,2.4003000000000005
VBi(PbO3)2,2.4006
Li3VP2H2O9,2.4006000000000003
Li4TiFe2Ni3(PO4)6,2.4011
Na8Sc3NbSi4(PO12)2,2.4011
YNb(TeO4)2,2.4013
LiB12PC,2.4016
Na3YI6,2.4016
H12OsN5Cl3O,2.402
Ta2Ge2O7,2.4021000000000003
Na3CrSiCO7,2.4022
NaNbIn(PO4)3,2.4031
V2ZnPbO7,2.4032
RbNb3(TeO6)2,2.4033
Ti(TlS)4,2.4034
Pr2SiS5,2.4036
NaTmTi2O6,2.4036000000000004
TiPO4F,2.4042
Rb2Cr3O10,2.4043
SrCaLaNbO6,2.4044
MgTi2MnO6,2.4047000000000005
UH10N2O7,2.4049
Na2CrAsCO7,2.4049
Rb2ScInBr6,2.4052
Na6Ta4Ga4Si7S5O48,2.4055
KFeP2O7,2.4056
Rb2TiFe(PO4)3,2.4056
Na5ZnSiSn3P5O24,2.4056
Na3YTiSi2SO12,2.4059
NbIn(PbO3)2,2.406
NaBi2Sb3O11,2.4062
Mo2P2PbO12,2.4068
Na2PbO2,2.4071
NaHfTi(PO4)3,2.4072000000000005
ZrVF6,2.4073
Na5Ti2Al2SiP5O24,2.4079
MgAl2(CoO3)2,2.4082
Rb4SnS4,2.4082
Ba3La3Ti4NbO18,2.4083
SrSmZrCrO6,2.4087
NbTlV2O8,2.4087
NaMn2Mo2H3O10,2.4088000000000003
Nd2Si2PbS8,2.4089
Sr2LaI7,2.4091
Na7Sc2Nb2Si5PO24,2.4091
Na3Ti2Ga2P5SO24,2.4092
La5Ti4GaO17,2.4092
ZnAsWO5,2.4094
NaCaHfNbO6,2.41
Na2MnGaF7,2.4107
MgTi4(PO4)6,2.4111
LiSn(SO4)2,2.4113
NdCuO2,2.4115
Na2ZrZn3(SO4)6,2.4117
RbMg30FeO32,2.4117999999999995
Na9Ca4Ta2(PO4)9,2.4117999999999995
ZrSiSn(SO6)2,2.4121
Na9Mg5Ta7(PO4)18,2.4123
Pr2Si2PbS8,2.4126000000000003
MgGa4P6(HO3)6,2.4127
Na3Ti2Al2P5SO24,2.4131
Na4NbIn3(PO4)6,2.4132
Na14Zr2Zn6Si5S7O48,2.4134
Li6ScFe5(SiO3)12,2.414
Li7P3S11,2.4142
RbVPHO6,2.4143
Rb9Na2Al11Si13O48,2.4145
RbUN3O11,2.4146
Na14Ga4Si9Ge4(SO16)3,2.4147
KNb4AsO13,2.4151
P4H3(WO8)2,2.4152
NaCaTiMnSi2O8F,2.4152
Ba5SrLa2Fe4O15,2.4153
NaMgSn3P3(SO8)3,2.4153
Li9Fe3P8O29,2.4154
YAgO2,2.4154
Ti(WO4)2,2.4156
YV5(H12O13)2,2.4156
NaAsW2O9,2.4161
Na3CaNb5Si3(PO6)6,2.4164
RbCr2BiO8,2.4169
NaNdFeWO6,2.4171
ZnSbAsO5,2.4172
LiVP2HO7,2.4174
ScCrO3,2.4178
Sm9Al5S21,2.4179
NaSmTiO4,2.418
Rb3GaO3,2.4181
BaCoP2O7,2.4182
TlMo2Cl7O2,2.4184
Na4CrH8SO7,2.4186
TlVSeO5,2.4187000000000003
MgV3O7,2.4187000000000003
Rb2Mo2P2O11,2.4189
PaCl5,2.4189
Li7Fe5OF15,2.4189
Li8ScFe7(SiO3)16,2.4191
LiFeSi3O8,2.4191000000000003
Na5AlO4,2.4191000000000003
NaMg30SbO32,2.4194000000000004
K2ErCuCl6,2.4197
Ba7Sc6Al2O19,2.4207
Pm2S3,2.4211
LaTi6(PO4)9,2.4213
NaNd3PtO7,2.4214
NbIn(TeO4)2,2.4220999999999995
VH12C2S2(O2F)6,2.4226
InAgP2(HO4)2,2.4228
Mn4Be3Ge3SO12,2.4229
SrCaS2,2.4232
ZnCr2O7,2.4233
Mg30NiCO32,2.4239999999999995
TiNb2ZnO8,2.4241
ZnSi4SnO10,2.424300000000001
Li3V(BO2)5,2.4248
TiPHO5,2.4250000000000003
Rb2GaAgF6,2.4254
Na22CaFe6P12(O8F)6,2.4256
Sr2ZnS3,2.4258999999999995
NaScNb(PO4)3,2.4261
MgVP2O7,2.4261
Rb3Hg2S3ClO12,2.4262
Rb9Fe7(PO4)10,2.4262
Na6Ge2S7,2.4264
Tl3CO3F,2.4270000000000005
Li9S3N,2.4272
NbP2NCl12,2.4276
Na3VS2(O4F)2,2.4277
Na3FeSiCO7,2.428
RbSbMoO6,2.4282000000000004
NaCrP2O7,2.4285
Na2TiGa(PO4)3,2.4287
Pb3(ClO)2,2.4293
Ta3In(PO4)6,2.4293000000000005
Mg4Al3(HO)17,2.4294
RbGeIO6,2.4295
LiMg6GaO8,2.4295
Tb2TiO5,2.4300000000000006
NaLiFe2(SiO3)4,2.430400000000001
Na3ReO5,2.4306
SnHgF6,2.431
CsGaS3,2.4313
KFe2P3(O4F3)2,2.4313
Zn3(PS4)2,2.4314
LaHO,2.4315
SrV2(NiO4)2,2.4315
U2NiP2(HO)24,2.4318
GeBiH8C2S4N,2.4319
NaNbFe(PO4)3,2.432
NaLuS2,2.4323
Na3LiMnBPO7,2.4324000000000003
TiAg2(IO3)6,2.4333
TmPaO4,2.434
Na6V2C4SO16,2.4345
SrGa4O7,2.4346
SrTiFeBiO6,2.4347000000000003
Ho2MgW2(ClO4)2,2.435
PrPtF7,2.4352
B3Pb10Br3O13,2.4354
Sr2H6Os,2.4354
Na2Si2Se5,2.4355
Na4Zn2Ga2SiS5O24,2.4356000000000004
Na14Al4Si9Sn4(SO16)3,2.4357
TlInSiS4,2.4359
Na3MgNb5Si3(PO6)6,2.4362
NaMnFeF6,2.4364
Cs2TmCuCl6,2.4365
Li4VP6(H4O11)2,2.4366
Na2Ta3AlSi4(SO12)2,2.4369
TiAgPO5,2.4369
Nb2Zn(PbO3)3,2.4369
Y9Al5S21,2.4371
Li6FeO4F,2.4372
LiFe(SiO3)2,2.4372
Na4Nb3InSi4(PO12)2,2.4376
Na3FeP8O23,2.4377000000000004
Si3(TeO6)2,2.4380000000000006
Na3ScTiSi2SO12,2.4381000000000004
Na4ReN3,2.4384
Tl3SnI5,2.439
SmSI,2.4395
NbAsPCl13,2.4397