formula,band_gap
NdCu4Ag,0.0
NdCu4Pd,0.0
NdCu5,0.0
NdCu5Sn,0.0
NdCu6,0.0
NdCuAg,0.0
NdDyC4,0.0
NdDy3,0.0
NdCr2Si2C,0.0
NdCuSn,0.0
NdCuSi,0.0
NdCuNi4,0.0
NdCuGe2,0.0
NdCuGe,0.0
NdCoSi2,0.0
NdCoSi,0.0
NdCdPd2,0.0
NdCdPd,0.0
NdCdIn,0.0
NdCdHg2,0.0
NdCdAu2,0.0
NdCdAu,0.0
NdCdAg2,0.0
NdCd3,0.0
NdCdGa,0.0
NdDyFe14C,0.0
NdCo2,0.0
NdCo3P2,0.0
NdCoSb3,0.0
NdCoSb2,0.0
NdCoRu,0.0
NdCoP,0.0
NdCoGe3,0.0
NdCoGe2,0.0
NdCoC2,0.0
NdCo9Si2,0.0
NdCo5P3,0.0
NdCo5,0.0
NdCo4B,0.0
NdCoGe,0.0
NdDyIn2,0.0
NdDyMg2,0.0
NdDyTl2,0.0
NdGa3Ag,0.0
NdGa3,0.0
NdGa3Pd,0.0
NdGa2Co3,0.0
NdGa2Ni3,0.0
NdFeSi2,0.0
NdGa3Pt,0.0
NdGa4Ni,0.0
NdGdHg2,0.0
NdGd3,0.0
NdGaSi,0.0
NdGaPt,0.0
NdGaPd2,0.0
NdGaPd,0.0
NdGa4Co9,0.0
NdGaNi,0.0
NdGaCo4,0.0
NdGaCo,0.0
NdGa7Fe5,0.0
NdGa6,0.0
NdGa4Os,0.0
NdCd2Pd,0.0
NdFeSb3,0.0
NdEu3,0.0
NdEu2BeO5,0.0
NdErTl2,0.0
NdErMg2,0.0
NdEuAg2,0.0
NdErFe17,0.0
NdErFe14B,0.0
NdEr3Fe34,0.0
NdDyZn2,0.0
NdEuHf4O12,0.0
NdFeRu,0.0
NdFeGe2,0.0
NdFeCu,0.0
NdFeCoSi2,0.0
NdFeCo3B,0.0
NdEuCuS3,0.0
NdFe5Co5Mo2,0.0
NdFe2,0.0
NdFe10Mo2N,0.0
NdEuMnFeO6,0.0
NdEuHg2,0.0
NdEuHfTiO6,0.0
Nb8P15O56,0.0
NdCd2,0.0
NdCd,0.0
Nd6Ti4Al43,0.0
Nd6TiInS12,0.0
Nd6Zn4Pd13,0.0
Nd6ZnFe13,0.0
Nd7Al7Co6,0.0
Nd7Co3,0.0
Nd7In6Ni5Ge3,0.0
Nd7Ni3,0.0
Nd7Pd3,0.0
Nd7Pt3,0.0
Nd8Ga3Co,0.0
Nd8Ni18P11,0.0
NdAgPb,0.0
NdAgAs2,0.0
NdAg3,0.0
Nd6Ta4Al43,0.0
NdAg2,0.0
Nd9Ti10O30,0.0
Nd9Mn10O30,0.0
Nd9Ga4,0.0
Nd6Si4Ni7,0.0
Nd6Si3Ni2,0.0
Nd6Ni2Sn,0.0
Nd6Fe13Au,0.0
Nd6Co2Sn,0.0
Nd6CdFe13,0.0
Nd6Cd5Si7,0.0
Nd6AlFe13,0.0
Nd6Al43W4,0.0
Nd6Al43V4,0.0
Nd6Al43Mo4,0.0
Nd6Al43Cr4,0.0
Nd6Al3Fe11,0.0
Nd5Zr3(Ni4As3)4,0.0
Nd6Al5Fe9,0.0
NdAgSn,0.0
Nd6Fe13Cu,0.0
Nd6Fe13Hg,0.0
Nd6Ni20P13,0.0
Nd6Nb5S16,0.0
Nd6Nb4Al43,0.0
Nd6N8O33,0.0
Nd6Mn16Ni7,0.0
Nd6Mg23C,0.0
Nd6Fe13Ge,0.0
Nd6InFe13,0.0
Nd6Ga3Fe11,0.0
Nd6Fe13Sn,0.0
Nd6Fe13Si,0.0
Nd6Fe13Sb,0.0
Nd6In22Pt13,0.0
NdAl,0.0
NdAl2,0.0
NdB4Rh7,0.0
NdB4,0.0
NdB2Ru3,0.0
NdB2Rh3,0.0
NdB6,0.0
NdB2Ir3,0.0
NdAu6,0.0
NdAu3,0.0
NdAu,0.0
NdB12,0.0
NdAsS,0.0
NdBC,0.0
NdBPt2,0.0
NdC2,0.0
NdBr2,0.0
NdBiRu2O7,0.0
NdBPd3,0.0
NdBiAu2,0.0
NdBi,0.0
NdBeCu4,0.0
NdBPt4,0.0
NdBPt3,0.0
NdBi3(Ru2O7)2,0.0
NdAsRuO,0.0
NdAsPd,0.0
NdAl7Au3,0.0
NdAl4Ni,0.0
NdAl4,0.0
NdAlAu,0.0
NdAl3Ni2,0.0
NdAl3,0.0
NdAl2Cu9,0.0
NdAl3Pd2,0.0
NdAlSn,0.0
NdAlSi2,0.0
NdAlSi,0.0
NdAlPd2,0.0
NdAlPd,0.0
NdAlNi4,0.0
NdAlNi,0.0
NdAlGa,0.0
NdAlPt,0.0
Nb8N5,0.0
Nb8Fe2Sb4Pd,0.0
Na2LiEuCl6,0.0
Na2LiNbF6,0.0
Na2LiNiF6,0.0
Na2LiPdF6,0.0
Na2LiTiF6,0.0
Na2Mg(BiO3)2,0.0
Na2Mg(CuO2)2,0.0
Na2MgNb2O6,0.0
Na2MgPb,0.0
Na2MgSn,0.0
Na2MgTi2O5,0.0
Na2MgV2(OF)4,0.0
Na2Mo15Se19,0.0
Na2MnPO4F,0.0
Na2MnO2,0.0
Na2MnNiO4,0.0
Na2LiCuPCO7,0.0
Na2MnHgF6,0.0
Na2MnBPO7,0.0
Na2MnBAsO7,0.0
Na2MnAgF6,0.0
Na2Mn2O3,0.0
Na2MnCoNiO6,0.0
Na2Li5Sn4,0.0
Na2GePCO7,0.0
Na2GaCuF7,0.0
Na2Ga11O17,0.0
Na2FeSiCO7,0.0
Na2FeO3,0.0
Na10Sn4Au13,0.0
Na10Fe4O9,0.0
Na10(Ga2Sn)3,0.0
Na2La2MgTi3O10,0.0
Na2InCuF7,0.0
Na2HgRhF6,0.0
Na2HgAu,0.0
Na2InCuBr6,0.0
Na(WO3)3,0.0
Na2Nd2MgTi2O8,0.0
Na2Nd2MgTi3O10,0.0
Na2Sm2MgTi2O8,0.0
Na2Sm2MgTi3O10,0.0
Na2SnAsCO7,0.0
Na2SnPCO7,0.0
Na2SrSn4,0.0
Na2TbO3,0.0
Na2Ti2As2O,0.0
Na2U(MoO4)3,0.0
Na2TlHg,0.0
Na2TlBi,0.0
Na2Tl,0.0
Na2TiCl4,0.0
Na2Ti3Cr(PO4)6,0.0
Na2Ti2Sb2O,0.0
Na2TiN2,0.0
Na2SiSbCO7,0.0
Na2SiBiCO7,0.0
Na2ScSiO5,0.0
Na2NiPCO7,0.0
Na2NiO3,0.0
Na2Ni2O3,0.0
Na2O9,0.0
Na2PRuCO7,0.0
Na2ScCuF7,0.0
Na2Sc2P4H12C4O13,0.0
Na2Sb3O8,0.0
Na2RuO4,0.0
Na2RuO3,0.0
Na2PtO3,0.0
Na2PrO3,0.0
Na2Pr2MgTi2O8,0.0
Na(WO3)2,0.0
MoPRu,0.0
MoPbO3,0.0
MoPd,0.0
MoPd2,0.0
MoPd2Rh,0.0
MoPd3,0.0
MoPd4,0.0
MoPt,0.0
MoPt3,0.0
Na,0.0
MoWC2,0.0
MoRu3,0.0
MoRu,0.0
MoRh,0.0
MoS2,0.0
MoPRh,0.0
MoP4,0.0
MoP2,0.0
MoCl4,0.0
MoC,0.0
MoBr3,0.0
MoCl5,0.0
Mo9Se11,0.0
Mo9HS18,0.0
Mo8P5,0.0
MoAs2,0.0
MoP,0.0
MoOs(PbO3)2,0.0
MoOs,0.0
MoO2,0.0
MoN,0.0
MoIrO6,0.0
MoIr3,0.0
MoIr,0.0
Na(OsO3)2,0.0
Na(NiO2)2,0.0
Na(Nd2Se3)4,0.0
Na(NbSe2)2,0.0
Na(Pr2Se3)4,0.0
Na(NbS2)2,0.0
Na(Nb3Se4)2,0.0
Na(Nb3S4)2,0.0
Na(MoSe)3,0.0
Na(Mg4Al3)4,0.0
Na(Nb3Te4)2,0.0
Na(RhO2)2,0.0
Na(WO3)10,0.0
Na(V3S4)2,0.0
Na(Ti3Se4)2,0.0
Na(RuO2)2,0.0
Na(TeMo)3,0.0
Na(SrAs)4,0.0
Na(SnAs)2,0.0
Na(Sm2Se3)4,0.0
Na(ScI3)2,0.0
Na2U2CoH8(C3O7)4,0.0
Na(La2Se3)4,0.0
Na(GaAu2)2,0.0
Na(CrS2)2,0.0
Na(CoO2)3,0.0
Na(Ce2Se3)4,0.0
Na(BiO2)2,0.0
Na(AuO2)2,0.0
Na(AsO3)2,0.0
Na(FeO2)2,0.0
Na(CuS)4,0.0
Na(CuO)2,0.0
Na(Cu2Sb)2,0.0
Na(Fe2O3)4,0.0
Mo7S8,0.0
Na2UF6,0.0
Na3Si,0.0
Na3SiBSbO7,0.0
Na3SiBiBO7,0.0
Na3SiNiCO7,0.0
Na3Sn,0.0
Na3SrTa4O12,0.0
Na3ThB24,0.0
Na3Ti2(GeO4)3,0.0
Na3Ti2(PO4)3,0.0
Na3Ti2Mn3Si4(O8F)2,0.0
Na3Ti6O13,0.0
Na3Ti8O16,0.0
Na3V4(Bi10O21)2,0.0
Na3V(SO4)3,0.0
Na3UF8,0.0
Na3SbS4,0.0
Na3Tl4,0.0
Na3Tl,0.0
Na3TiP8O23,0.0
Na3TiF6,0.0
Na3RuO4,0.0
Na3RuF6,0.0
Na3ReN3,0.0
Na3Ni2P2(CO7)2,0.0
Na3Ni2(GeO4)3,0.0
Na3Ni(BO3)2,0.0
Na3Pr14(RuO6)6,0.0
Na3Pd5F12,0.0
Na3Pd,0.0
Na3NiF6,0.0
Na3NiBPO7,0.0
Na3NiBAsO7,0.0
Na3Ni7O12,0.0
Na3Ni5O8,0.0
Na3NpO6,0.0
Na3Nd5Cl15,0.0
Na3VO3,0.0
Na19Zr11S30,0.0
Na2(BiO2)21,0.0
Na2(CrSe2)3,0.0
Na2(NbSe2)3,0.0
Na2(TaSe2)3,0.0
Na24In5O15,0.0
Na26Cd141,0.0
Na26Ge14Au41,0.0
Na2AgAuBr6,0.0
Na2AgPdF6,0.0
Na2Ca5TiSi4(O8F)2,0.0
Na2Ca2Ta3O10,0.0
Na2Ca(PO4)2,0.0
Na2BiO3,0.0
Na2Bi2C4SO16,0.0
Na2B29,0.0
Na2Au,0.0
Na2AlGe7O16,0.0
Na2AgRuF6,0.0
Na17Pd15F48,0.0
Na17(WO3)20,0.0
Na11TiNb2Si4P2(O12F)2,0.0
Na11Ti8(PO4)12,0.0
Na11Zr8Si7P5O48,0.0
Na11(Ru4O9)4,0.0
Na11(CoO2)13,0.0
Na10US6O29,0.0
Na3Zr2Si2PO12,0.0
Na11Bi5O16,0.0
Na12(CuO2)7,0.0
Na13Ni11O24,0.0
Na17(Mo15S19)4,0.0
Na16(WO3)19,0.0
Na15SnGe8P,0.0
Na15Sn4,0.0
Na15Re7N19,0.0
Na12NbO7,0.0
Na14Cu2O9,0.0
Na14(WO3)19,0.0
Na13Zr7Si5P7O48,0.0
Na14Fe2O9,0.0
Na3Nd14(RuO6)6,0.0
Na3Nb6O11,0.0
Na3Nb34Al2O64,0.0
Na3(WO3)4,0.0
Na3Ag,0.0
Na3Al,0.0
Na3B20,0.0
Na3Bi,0.0
Na3Bi(P2O7)2,0.0
Na3Ca,0.0
Na3CoBAsO7,0.0
Na3Co2(GeO4)3,0.0
Na3Cl2,0.0
Na3Cl,0.0
Na3(WO3)10,0.0
Na3Cd2IrO6,0.0
Na3(W3O8)4,0.0
Na3(TiS2)10,0.0
Na3(Pt3O4)4,0.0
Na2ZnFe2(PO4)3,0.0
Na2YF6,0.0
Na2VCuF7,0.0
Na2ZnGe,0.0
Na2VCu3S4,0.0
Na2V6O15,0.0
Na2V13O22,0.0
Na2US3,0.0
Na3Cr11Se20,0.0
Na2ZrN2,0.0
Na3(CoO2)4,0.0
Na3(NiO2)5,0.0
Na3(NiO2)2,0.0
Na3(Mn2Te3)2,0.0
Na3(GePt)4,0.0
Na3(FeSe2)2,0.0
Na3(FeS2)2,0.0
Na3(CuO2)2,0.0
Na3(CuS)4,0.0
Na3Cu2SbO6,0.0
Na3Mg,0.0
Na3Li4Mn5O9,0.0
Na3Li3V2F12,0.0
Na3Mg3In(SO4)6,0.0
Na3Li3Ti2F12,0.0
Na3Li3Fe2P2(CO7)2,0.0
Na3IrN2,0.0
Na3In2Bi3,0.0
Na3In,0.0
Na3Li3N2,0.0
Na3Mg5Si8(HO12)2,0.0
Na3Mn20O40,0.0
Na3Mo15Se19,0.0
Na3Mn5O12,0.0
Na3Mn4(TeO6)2,0.0
Na3Mn3O8,0.0
Na3Mn2V3O12,0.0
Na3Mn2(GeO4)3,0.0
Na3Hg2,0.0
Na3Fe2(GeO4)3,0.0
Na3Fe(SO4)3,0.0
Na3EuV2O8,0.0
Na3EuTi2Nb2O12,0.0
Na3Eu9B8O27,0.0
Na3Fe2Mo5O16,0.0
Na3Eu2(GeSe3)2,0.0
Na3Eu(CO3)3,0.0
Na3Eu,0.0
Na3CuSiCO7,0.0
Na3Fe5O9,0.0
Na3HfF8,0.0
Na3Ge3(MoO6)2,0.0
Na3Ge,0.0
Na3Gd(CO3)3,0.0
Na3FeSiBO7,0.0
Na3FeSe3,0.0
Na3FeS3,0.0
Na3FeO4,0.0
Mo6PbSe8,0.0
MnGaIr2,0.0
MnGaNi,0.0
MnGaNi2,0.0
MnGaPd2,0.0
MnGaPt2,0.0
MnGe2,0.0
MnH8C4(NO2)3,0.0
MnH,0.0
MnGeRu2,0.0
MnGaGe,0.0
MnGeRh2,0.0
MnGeRh,0.0
MnGePd2,0.0
MnGeIr,0.0
MnGe2Pd3,0.0
MnGaFeCo,0.0
MnGaFe2,0.0
MnFeNiO4,0.0
MnFeCoGe,0.0
MnFeCo(PO4)3,0.0
MnFeBO4,0.0
MnFeB,0.0
MnHO2,0.0
MnFeSn4,0.0
MnGaCo2,0.0
MnGa2Ni9,0.0
MnGa2Co,0.0
MnGa2(CuSe2)3,0.0
MnGa,0.0
MnFeTe,0.0
MnGa2N3,0.0
MnFeAs,0.0
MnNi,0.0
MnNi(BiO3)2,0.0
MnNi(PO4)2,0.0
MnNi2Ge,0.0
MnNi2Sb,0.0
MnNi3(PO4)4,0.0
MnNi5(BO5)2,0.0
MnNiAs,0.0
MnNiSnPd,0.0
MnNiSe2,0.0
MnNiSb2,0.0
MnNiSb,0.0
MnNiP,0.0
MnNiO3,0.0
MnNiO2,0.0
MnNiN2,0.0
MnNiGe,0.0
MnNbRu2,0.0
MnInCuS4,0.0
MnInCu4,0.0
MnInCu2,0.0
MnInO3,0.0
MnHgS2,0.0
MnHg3S4,0.0
MnHg2Te3,0.0
MnHg2S3,0.0
MnInRh2,0.0
MnNbP,0.0
MnNbO4,0.0
MnNbGe,0.0
MnNb4(CS2)2,0.0
MnNb3O6,0.0
MnNb3(PO4)6,0.0
MnNO5,0.0
MnN,0.0
MnMoN2,0.0
MnMoAs2,0.0
MnIr,0.0
MnFe5O8,0.0
MnCoN2,0.0
MnCoNiSn,0.0
MnCoO4,0.0
MnCoP2,0.0
MnCoPt2,0.0
MnCr2Ni3(PO4)6,0.0
MnCr2Fe3(PO4)6,0.0
MnCr(PO4)2,0.0
MnCoTe,0.0
MnCoSnRh,0.0
MnCoSnPd,0.0
MnCoSn,0.0
MnCoSi2,0.0
MnCoSi,0.0
MnCoSe2,0.0
MnCoSn4,0.0
MnCoCuSn,0.0
MnCo(PO4)2,0.0
MnCo(BiO3)2,0.0
MnCo,0.0
MnCdTe2,0.0
MnCdSe4,0.0
MnCdF5,0.0
MnCdCu4(GeSe4)2,0.0
MnCd9O10,0.0
MnCr2Se3S,0.0
MnCo2Ge,0.0
MnCo2Si,0.0
MnCo9O10,0.0
MnCo5O12,0.0
MnCo5N4,0.0
MnCo4Cu10(SnS4)5,0.0
MnCo3O8,0.0
MnCo2Sb,0.0
MnCo3C,0.0
MnCo3(PO4)4,0.0
MnCo2Sn,0.0
MnCr3(PO4)6,0.0
MnCr3Te4,0.0
MnFe2(PO4)3,0.0
MnFe(PO4)2,0.0
MnF4,0.0
MnF3,0.0
MnFe2Ge,0.0
MnCuSe4,0.0
MnCuSb,0.0
MnCuPt2,0.0
MnCuO3,0.0
MnFe2Si,0.0
MnFe5(PO4)6,0.0
MnFe4SiB2,0.0
MnFe4Si3,0.0
MnFe4CuO8,0.0
MnFe4(BiO3)5,0.0
MnFe4,0.0
MnFe3Sb2(PO4)6,0.0
MnFe3Ni2(PO4)6,0.0
MnFe3Co2(PO4)6,0.0
MnFe3,0.0
MnFe3Si8,0.0
MnCuF6,0.0
MnCrTe2,0.0
MnCrSeS,0.0
MnCrSb2,0.0
MnCrPt6,0.0
MnCu(AgO2)2,0.0
MnCrInS4,0.0
MnCrB2,0.0
MnCrAs,0.0
MnCr8Cu3S16,0.0
MnCr4CoS8,0.0
MnCrN2,0.0
MnCu2GeTe4,0.0
MnCuAs,0.0
MnCu4Sn,0.0
MnCu4H14(SO9)2,0.0
MnCu3(PO4)4,0.0
MnCu2SnTe4,0.0
MnCu2SnS4,0.0
MnCu2Sn3S8,0.0
MnCu2Sn,0.0
MnCu2P2O9,0.0
MnCu2SnSe4,0.0
MnNiTe2,0.0
MnO2,0.0
MnVN2,0.0
MnVP2,0.0
MnWN2,0.0
MnZn,0.0
MnZn(GeO3)2,0.0
MnZn10(B4Rh9)2,0.0
MnZn13,0.0
MnZn2IrO6,0.0
MnZn3,0.0
MnZnRh2,0.0
MnZnPd2,0.0
MnVGaCo,0.0
MnZnNi2,0.0
MnZnAu2,0.0
MnZn5(BO5)2,0.0
MnVGa5,0.0
MnVAs2,0.0
MnVAs,0.0
MnV(Fe2Si)2,0.0
MnV(CrTe2)2,0.0
MnV(Co2Si)2,0.0
MnV,0.0
MnTlRh2,0.0
MnV(Ni2Sn)2,0.0
MnTlO3,0.0
MnTl(VS2)4,0.0
MnZnSe4,0.0
MnV2Fe,0.0
MnV5(PO4)6,0.0
MnV4CuO12,0.0
MnV4CrO12,0.0
MnV4(CuO4)3,0.0
MnV3O8,0.0
MnV3Cu2(PO4)6,0.0
MnV2Cr,0.0
MnV3Cr2(PO4)6,0.0
MnV2TeO7,0.0
MnV2Os,0.0
MnV2O4,0.0
MnV3Co2(PO4)6,0.0
MnTeO4,0.0
MnZnTe4,0.0
Mo(RhO3)2,0.0
Mo3O10,0.0
Mo3Os,0.0
Mo3Os2,0.0
Mo3P,0.0
Mo3P3O13,0.0
Mo3P3O16,0.0
Mo3Pd2N,0.0
Mo3PdPtN,0.0
Mo3Pt,0.0
Mo3Pt2N,0.0
Mo3Ru2,0.0
Mo3S3Br,0.0
Mo3S4,0.0
Mo6Pb(SeS)4,0.0
Mo6OsRu,0.0
Mo5O14,0.0
Mo5(O4F)3,0.0
Mo4P3,0.0
Mo4O9,0.0
Mo4C3,0.0
Mo3Se4,0.0
Mo4Ru,0.0
Mo3Ir,0.0
Mo3C2,0.0
Mo2C,0.0
Mo2AsP3,0.0
Mo2As3P,0.0
Mo2As3,0.0
Mo15Se19,0.0
Mo15Pb3Se19,0.0
Mo13O33,0.0
Mo(SI)2,0.0
Mo15S19,0.0
Mo,0.0
Mo2CN,0.0
Mo2HO6,0.0
Mo3(SeS)2,0.0
Mo2Ru,0.0
Mo2Rh,0.0
Mo2PdRh2,0.0
Mo2P3O13,0.0
Mo2NCl8,0.0
Mo2N3,0.0
Mo2N,0.0
MnTe2,0.0
MnP2,0.0
MnP2O7,0.0
MnP4,0.0
MnPO4,0.0
MnPd3,0.0
MnPd2,0.0
MnOs3,0.0
MnPbO3,0.0
MnPSe3,0.0
MnPRh,0.0
MnPPd,0.0
MnOF,0.0
MnPt2,0.0
MnPt3,0.0
MnSiRh2,0.0
MnSiRh,0.0
MnSiO3,0.0
MnSiNi2,0.0
MnSiNi,0.0
MnSiRu2,0.0
MnSiIr,0.0
MnSi2Ni,0.0
MnSi,0.0
MnSe,0.0
MnSiTc2,0.0
MnSn,0.0
MnTc2Sb,0.0
MnTc2Ge,0.0
MnTc2As,0.0
MnSnRh2,0.0
MnSnPt,0.0
MnSnPd2,0.0
MnSnAu,0.0
MnSn2,0.0
MnSnRu2,0.0
MnO,0.0
MnSbRu2,0.0
MnS,0.0
MnRuN2,0.0
MnRhN2,0.0
MnS2,0.0
MnRh2Pb,0.0
MnReO4,0.0
MnReN2,0.0
MnReB2,0.0
MnRe(PbO3)2,0.0
MnRh,0.0
MnSbS2Cl,0.0
MnSbRh2,0.0
MnSbRh,0.0
MnSbPt,0.0
MnSbO4,0.0
MnSbIr,0.0
MnSb3(PO4)6,0.0
MnSb3(PO4)4,0.0
MnSO5,0.0
MnSbAu,0.0
Na2Ca6Mg7Fe(SiO3)16,0.0
Na2CaV12O36,0.0
NaPb2C2O7,0.0
NaPb3,0.0
NaPd2Pb,0.0
NaPd3O4,0.0
NaPdO2,0.0
NaPm2Sn,0.0
NaPmAu2,0.0
NaPr2Cl6,0.0
NaPr2IrO6,0.0
NaPr2OsO6,0.0
NaPr3Mn4O12,0.0
NaPrZrFeO6,0.0
NaPrTl2,0.0
NaPrTi4O12,0.0
NaPrNb2O6,0.0
NaPb,0.0
NaPrHfNbO6,0.0
NaPrHfGaO6,0.0
NaPrHf4O12,0.0
NaPrAu2,0.0
NaPrHg2,0.0
NaP(WO4)2,0.0
NaOsO3,0.0
NaNi3O4,0.0
NaNi3O5,0.0
NaNi2BiO6,0.0
NaNdTi4O12,0.0
NaNdNb2O6,0.0
NaNdHg2,0.0
NaNdHf4O12,0.0
NaNdB6O13,0.0
NaPt2,0.0
NaNi4F10,0.0
NaO2,0.0
NaNiO2,0.0
NaNiN,0.0
NaNp3F13,0.0
NaNdAu2,0.0
NaPt3O4,0.0
NaPuO3,0.0
Nb2VFeSe10,0.0
Nb2VSe4,0.0
Nb2Zn2BiO8,0.0
Nb2Zn2SbO8,0.0
Nb3(Bi5Cl9)2,0.0
Nb3(CrSi)8,0.0
Nb3(CuS3)2,0.0
Nb3(CuSe3)2,0.0
Nb3(Fe10B3)2,0.0
Nb3(IrSe5)2,0.0
Nb39C34,0.0
Nb3Au,0.0
Nb3As,0.0
Nb3AlFe8,0.0
Nb2Te3,0.0
Nb3AlCo8,0.0
Nb3AlC2,0.0
Nb3Al2C,0.0
Nb3Al,0.0
Nb2Tc,0.0
Nb2P2O9,0.0
NaSbTe2,0.0
NaSbSe2,0.0
Nb2P4H3O16,0.0
NaSbPCO7,0.0
NaSbAsCO7,0.0
NaRuO3,0.0
NaRuO2,0.0
NaSbCO2F3,0.0
NaPuF4,0.0
Nb2P5,0.0
Nb2Pd,0.0
Nb2Se,0.0
Nb2SbO6,0.0
Nb2Ru,0.0
Nb2ReRu,0.0
Nb2Pt,0.0
Nb2PdS6,0.0
Nb2RuW,0.0
NaNd3Ti3MnO12,0.0
NaNd2Se3,0.0
NaMg14TiO16,0.0
NaMg14Zn,0.0
NaMg14Zr,0.0
NaMg3,0.0
NaMg30TiO32,0.0
NaMg3Al6Si6B3O31,0.0
NaMg6Al,0.0
NaMg6Ni,0.0
NaMg6Nb,0.0
NaMg6MnO8,0.0
NaMg6Ga,0.0
NaMg14Ti,0.0
NaMg6Bi,0.0
NaMg6Al3Si6(BO10)3,0.0
NaMg14Sn,0.0
NaMg14Cu,0.0
NaMg14Cr,0.0
NaMg14Co,0.0
NaMg14Fe,0.0
NaMg14Cd,0.0
NaMg14Bi,0.0
NaMg14Al,0.0
NaMg149,0.0
NaMg,0.0
NaMg14Ga,0.0
NaMg14SiO16,0.0
NaMg14Si,0.0
NaMg14Sb,0.0
NaMg14Ni,0.0
NaMg14Mo,0.0
NaMg14Mn,0.0
NaMg6Sb,0.0
NaMo3Se4,0.0
NaMnTe2,0.0
NaMnSe2,0.0
NaMnSb,0.0
NaMoN2,0.0
NaMnP,0.0
NaMnN,0.0
NaMnBiWO6,0.0
NaMoO3,0.0
NaNd(Si2O5)3,0.0
NaNbSnWO6,0.0
NaNbInWO6,0.0
NaNb4(PO4)6,0.0
NaNb2O4,0.0
NaNb14O36,0.0
NaNb6O16,0.0
Nb3Au2,0.0
NaMnAs,0.0
NaMn8O16,0.0
NaMgFe(SO4)3,0.0
NaMgCu2H2(SeO5)2,0.0
NaMg7,0.0
NaMg6Zn,0.0
NaMg6TiO8,0.0
NaMgV4O10,0.0
NaMn16O32,0.0
NaMn7O12,0.0
NaMn2Si3BH2O11,0.0
NaMn2P2O9,0.0
NaMn2O4,0.0
NaMn10O20,0.0
NaMn2BiO6,0.0
NaLu(Pd3O4)2,0.0
Nb3B2Ru5,0.0
Nb5Ga13,0.0
Nb5Ga3,0.0
Nb5GaSn2,0.0
Nb5Ge3,0.0
Nb5Ge3B,0.0
Nb5Ir7,0.0
Nb5N6,0.0
Nb5Ni(B2Ru5)2,0.0
Nb5Ni41B12,0.0
Nb5O12F,0.0
Nb5OF14,0.0
Nb5SiSn2,0.0
Nb5SiB2,0.0
Nb5Si6Mo5,0.0
Nb5Si3N,0.0
Nb5Si3B,0.0
Nb5Cr3Se20,0.0
Nb5Si3,0.0
Nb5S8,0.0
Nb5Pt3O,0.0
Nb5Cr(B2Ru5)2,0.0
Nb5B6,0.0
Nb4O5,0.0
Nb4NiSe8,0.0
Nb4NiS8,0.0
Nb4Ni(CS2)2,0.0
Nb4GeSe8,0.0
Nb4GeS8,0.0
Nb4GaSe8,0.0
Nb4N5,0.0
Nb5SnSe8,0.0
Nb4Rh2C,0.0
Nb5As3,0.0
Nb5(SeS)2,0.0
Nb5(PPd)4,0.0
Nb5(NiP)4,0.0
Nb5(CuSi)4,0.0
Nb4Zn2C,0.0
Nb4VSe8,0.0
Nb4VS8,0.0
Nb4SiNi,0.0
Nb4WC5,0.0
Nb5Te4,0.0
Nb6PtAu,0.0
Nb6RuRh,0.0
Nb6SiGe,0.0
Nb6SiSn,0.0
Nb6Sn5,0.0
Nb6SnGe,0.0
Nb6SnSe8,0.0
Nb6SnTe8,0.0
Nb6Te8Pb,0.0
Nb6TlS8,0.0
Nb6TlSe8,0.0
Nb6TlTe8,0.0
Nb8Co2Sb4Pd,0.0
Nb7S8,0.0
Nb7Ni6,0.0
Nb7Co6,0.0
Nb7(B4Ru3)2,0.0
Nb7(B2C)3,0.0
Nb6ZnTe8,0.0
Nb6ZnS8,0.0
Nb6Zn7,0.0
Nb6V3Ni3C2,0.0
Nb7(BC)4,0.0
Nb6PbS8,0.0
Nb6OsAu,0.0
Nb6CdSe8,0.0
Nb6CdS8,0.0
Nb6C5,0.0
Nb6BiS8,0.0
Nb6Co16Ge7,0.0
Nb6AlGe,0.0
Nb6Al11Ir,0.0
Nb6AlSi,0.0
Nb6Co16Si7,0.0
Nb6Cr7,0.0
Nb6Ni7,0.0
Nb6Ni16Ge7,0.0
Nb6InSe8,0.0
Nb6GePt,0.0
Nb6GaGe,0.0
Nb6Fe7,0.0
Nb6Fe16Si7,0.0
Nb4FeTe4,0.0
Nb3InSe12,0.0
Nb3Ir,0.0
Nb3IrS8,0.0
Nb3MoSe8,0.0
Nb3Ni,0.0
Nb3Ni3C,0.0
Nb3NiS6,0.0
Nb3NiSe6,0.0
Nb3Os,0.0
Nb3P,0.0
Nb3S4,0.0
Nb3Ru,0.0
Nb3RhSe6,0.0
Nb3In,0.0
Nb3Pd,0.0
Nb3Pb2O7F5,0.0
Nb3Pb2(O2F)4,0.0
Nb3Pb,0.0
Nb3GeTe6,0.0
Nb3Cr3C,0.0
Nb3Cr,0.0
Nb3CoSe6,0.0
Nb3CoS6,0.0
Nb3Co5B2,0.0
Nb3Co3C,0.0
Nb3Co2Si,0.0
Nb3Bi,0.0
Nb3B4W3,0.0
Nb3B4,0.0
Nb3B3C,0.0
Nb3Co4B7,0.0
Nb3Cr8Si,0.0
Nb3Ga2,0.0
Nb3Ga,0.0
Nb3FeSe6,0.0
Nb3Fe8Si,0.0
Nb3Fe,0.0
Nb3FeSe10,0.0
Nb3Se4,0.0
Nb3Si,0.0
Nb4CoSi,0.0
Nb4CoSe8,0.0
Nb4CoS8,0.0
Nb4CoPt3,0.0
Nb4CoP,0.0
Nb4Co2N,0.0
Nb4Co2C,0.0
Nb4Co(CS2)2,0.0
Nb4C3,0.0
Nb4Co2PdSe12,0.0
Nb4CrS8,0.0
Nb4FeSe8,0.0
Nb4FeP,0.0
Nb4Fe3Si5,0.0
Nb4CuSi,0.0
Nb4CuSe8,0.0
Nb4Cu(CS2)2,0.0
Nb4CrSe8,0.0
Nb4Fe2N,0.0
Nb4B20Mo11,0.0
Nb4AlN3,0.0
Nb3Te3As,0.0
Nb3Te4,0.0
Nb3SnGeMo3,0.0
Nb3SiTe6,0.0
Nb3SiSnMo3,0.0
Nb3SiO10,0.0
Nb3Si2,0.0
Nb4As3,0.0
Nb3TlVCl11,0.0
Nb3V3Ge2,0.0
Nb4Al5Co3,0.0
Nb4Al,0.0
Nb3ZnAu,0.0
Nb3Zn3N,0.0
Nb3V(PO4)6,0.0
Nb3WSe8,0.0
Nb3WS8,0.0
Nb3V5(B2Ir)4,0.0
Nb3V3Si2,0.0
NaLiTbWO6,0.0
NaLiNb4O12,0.0
NaLiMnS2,0.0
Na5Mn11O24,0.0
Na5Mn2As(CO4)4,0.0
Na5Mn2O8,0.0
Na5Mn2P(CO4)4,0.0
Na5Mn2P2(CO7)2,0.0
Na5Mn4(SiO3)6,0.0
Na5Ni2P2(CO7)2,0.0
Na5Fe6(SiO3)12,0.0
Na5Ni2As(CO4)4,0.0
Na5Nd11Ti10Mn6O48,0.0
Na5Mn7O16,0.0
Na5Eu4Si4O16F,0.0
Na5As4,0.0
Na5(ZnSn5)2,0.0
Na5(WO3)13,0.0
Na5Bi2P(CO4)4,0.0
Na5(NiO2)8,0.0
Na5(NiO2)6,0.0
Na5(CuO2)3,0.0
Na4Zr(SiO3)6,0.0
Na4Y2(IrO4)3,0.0
Na5Ca4(SiO3)6,0.0
Na5CuHO4,0.0
Na5Cu7O13,0.0
Na5Ca2Ce3Ti8Nb2O30,0.0
Na5Cr2As(CO4)4,0.0
Na5Co2P(CO4)4,0.0
Na5Co2As(CO4)4,0.0
Na5Ce3Ti6Nb2O24,0.0
Na5Co2S5,0.0
Na4W4O15,0.0
Na6CoSe4,0.0
Na6Cr2B4PO16,0.0
Na6Cr2B4SO16,0.0
Na6Cr2C4SO16,0.0
Na6Cr2P(CO4)4,0.0
Na6Cu2As(CO4)4,0.0
Na6Cu2C4SO16,0.0
Na6Cu2P(CO4)4,0.0
Na6CuO4,0.0
Na6Fe2As(CO4)4,0.0
Na6Fe2B4AsO16,0.0
Na6Fe2C4SO16,0.0
Na6Fe2P(CO4)4,0.0
Na6RuN4,0.0
Na6OsN4,0.0
Na6O,0.0
Na6Ni2As(CO4)4,0.0
Na6Cd16Au7,0.0
Na6MnTe4,0.0
Na6Mn2B4AsO16,0.0
Na6Mn2As(CO4)4,0.0
Na6Mg3B9P6H3O38,0.0
Na6Mn2P(CO4)4,0.0
Na6Bi2P(CO4)4,0.0
Na5Sr2B10(CO13)2,0.0
Na5SnSb3,0.0
Na5Sn2,0.0
Na5Sn13,0.0
Na5Si51,0.0
Na5TbO6,0.0
Na5Ni9O16,0.0
Na5PrO6,0.0
Na5Ti3F14,0.0
Na6Bi2As(CO4)4,0.0
Na6B4Sb2SO16,0.0
Na6B4Sb2PO16,0.0
Na6(WO3)7,0.0
Na5Zr2Si6ClO20,0.0
Na5Ti16O32,0.0
Na5V2(PO5)3,0.0
Na5Ti3O8,0.0
Na5VO4,0.0
Na4V20(CuO4)15,0.0
Na2Cu5TeS3O19,0.0
Na2CuAsCO7,0.0
Na2CuAuF6,0.0
Na2CuO2,0.0
Na2CuPCO7,0.0
Na2CuPdF6,0.0
Na2Eu2Ti3O10,0.0
Na2EuCl5,0.0
Na2Fe(Si2O5)3,0.0
Na2Fe2O5,0.0
Na2Fe3S4,0.0
Na4Al3Si3NO12,0.0
Na4(WO3)9,0.0
Na4(CoO2)7,0.0
Na3Zr3Fe(PO4)6,0.0
Na2FeNi2(PO4)3,0.0
Na2FeCuF7,0.0
Na2Cu4P2ClO9,0.0
Na2Cu3O4,0.0
Na2Co6O7,0.0
Na2Cl,0.0
Na2CeFeO6,0.0
Na2CeCuCl6,0.0
Na2CoO3,0.0
Na2Ce2TiSi(CO6)2,0.0
Na2CdPb,0.0
Na2CdO3,0.0
Na2CdHg,0.0
Na2Cd11,0.0
Na2CdSn,0.0
Na4Al3Si3SO16,0.0
Na2Cu3(SiO3)4,0.0
Na2Cu3(GeO3)4,0.0
Na2Cu(HO)4,0.0
Na2Cu(BrCl)2,0.0
Na2CrCl4,0.0
Na2Cr3O9,0.0
Na2CoSe2,0.0
Na2CoS2,0.0
Na2Cr7O14,0.0
Na4Al3Si7(HO3)8,0.0
Na4Ca4Be4AlSi7(O6F)4,0.0
Na4MgMn4O8,0.0
Na4Mn2O5,0.0
Na4MgCu(AsO4)2,0.0
Na4Mg11AlSi12(HO10)4,0.0
Na4Mg(Fe2O5)2,0.0
Na4Mg(CuO2)4,0.0
Na4Mn2P(CO4)4,0.0
Na4Nb9(P2O13)3,0.0
Na4Ti6O13,0.0
Na4Tb2(IrO4)3,0.0
Na4SrTa5O15,0.0
Na4Sn2Ge5O17,0.0
Na4Sn2C4SO16,0.0
Na4Mn9O18,0.0
Na4NiO4,0.0
Na4Ni3O7,0.0
Na4Ni3(SbO5)2,0.0
Na6SbO5,0.0
Na4Li3(FeO4)2,0.0
Na4H4PdPt,0.0
Na4Eu2GeAs4,0.0
Na4Er2(IrO4)3,0.0
Na4Dy2(IrO4)3,0.0
Na4Cu7P4(ClO9)2,0.0
Na4CrO4,0.0
Na4CrO3,0.0
Na4Eu2GeP4,0.0
Na4Cr13Se23,0.0
Na4Co2P(CO4)4,0.0
Na4Co2C4SO16,0.0
Na4CaSn6,0.0
Na4CrH6ClO7,0.0
Na4Eu2P4Pb,0.0
Na4Eu2SiP4,0.0
Na4Ge9O20,0.0
Na4Ga3Ge3O16,0.0
Na4Eu2SiAs4,0.0
Na4Fe6O13,0.0
Na4Fe2P(CO4)4,0.0
Na4Fe2As(CO4)4,0.0
Na4Eu2SnP4,0.0
Na4Eu2SnAs4,0.0
Na6SiNi2(CO4)4,0.0
Na6Sn2P(CO4)4,0.0
Na6Ti11O24,0.0
NaFe2(MoO5)2,0.0
NaFe2(SiO3)4,0.0
NaFe3P3O13,0.0
NaFe3Si3O10,0.0
NaFeAs,0.0
NaFeCuS2,0.0
NaFeCuSe2,0.0
NaFeN,0.0
NaFeO3,0.0
NaHf3(NCl)3,0.0
NaHf2TiF11,0.0
NaH2Pd3,0.0
NaGe4(PbO4)3,0.0
NaFe12O19,0.0
NaGdHg2,0.0
NaGa3,0.0
NaGa,0.0
NaFeS2,0.0
NaFeRuO4,0.0
NaGdTiNbO6F,0.0
NaEuZrWO6,0.0
NaEuO2,0.0
NaEuNiGeO6,0.0
NaEuNbWO6,0.0
NaEuHfWO6,0.0
NaEuHfSbO6,0.0
NaEuHfFeO6,0.0
NaEuHf2O6,0.0
NaEuGeO4,0.0
NaEuCu2F8,0.0
NaEuHfSnO6,0.0
NaHf6(NCl)6,0.0
NaEuP2H4CO7,0.0
NaEuZrTiO6,0.0
NaEuZr2O6,0.0
NaEuV4O12,0.0
NaEuTl2,0.0
NaEuTiSnO6,0.0
NaEuP2O7,0.0
NaEuTiO4,0.0
NaEuTiBiO6,0.0
NaEuSe2,0.0
NaHf8(NCl)8,0.0
NaHfMg14,0.0
NaLaZrFeO6,0.0
NaLaNb2O6,0.0
NaLaZrVO6,0.0
NaLaMg6,0.0
NaLaMg14,0.0
NaLaHfNbO6,0.0
NaLaCuTe4,0.0
NaLaAu2,0.0
NaLi(WO3)4,0.0
NaLi2(RuO2)6,0.0
NaLiMg6,0.0
NaLiMg14,0.0
NaLi5Fe2P2(CO7)2,0.0
NaLi3,0.0
NaLi2Sn,0.0
NaLi2Pb,0.0
NaLi2N,0.0
NaLi2Mo2P3O14,0.0
NaLa2Se3,0.0
NaHg3,0.0
NaHg2,0.0
NaHg,0.0
NaHfSnWO6,0.0
NaHgPd2,0.0
NaHfMg6,0.0
NaHfMg30O31,0.0
NaHfMg14O15,0.0
NaLa2Mn3O9,0.0
NaHoIrO4,0.0
NaIn,0.0
NaLa(RuO3)2,0.0
NaLa,0.0
NaIrO3,0.0
NaInSn4,0.0
NaInPd2,0.0
NaHoTl2,0.0
NaInHg2,0.0
NaIn3,0.0
NaIn2Au,0.0
NaIn2,0.0
NaIn(WO3)2,0.0
NaInAg2,0.0
NaEu2Tl,0.0
NaCd2Pd,0.0
NaCd2Pt,0.0
NaCd2Rh,0.0
NaCd3,0.0
NaCd4As3,0.0
NaCdBi,0.0
NaCdHg2,0.0
NaCdIn4(PO4)6,0.0
NaCdO2,0.0
NaCdPd2,0.0
NaCdSb,0.0
NaCeMg30O32,0.0
NaCeMg14O16,0.0
NaCeHg2,0.0
NaCeAu2,0.0
NaCeCuTe4,0.0
NaCd(RhO2)4,0.0
NaCaZrWO6,0.0
NaCa3IrO6,0.0
NaCa2Tl,0.0
NaCa2Rh,0.0
NaCa4TaTi4O15,0.0
NaCa2La7Mn10O30,0.0
NaCO3,0.0
NaC64,0.0
NaBiTe2,0.0
NaBiSe2,0.0
NaBiPd2,0.0
NaCa2In,0.0
NaCeMg6,0.0
NaCaDyFeO6,0.0
NaCaTl2,0.0
NaCaTbFeO6,0.0
NaCaSiO4,0.0
NaCaSb2O7,0.0
NaCaNbWO6,0.0
NaCaMg14,0.0
NaCaLaFeO6,0.0
NaCaHfWO6,0.0
NaCaEuWO6,0.0
NaCeMg6O8,0.0
NaCu2O3,0.0
NaCu2H3O10,0.0
NaCu3(RuO3)4,0.0
NaCu5S3,0.0
NaCuF3,0.0
NaEu2AlP3,0.0
NaEu(PO3)4,0.0
NaEu(MoO4)2,0.0
NaCuAsO4,0.0
NaEr(Pd3O4)2,0.0
NaCuPO4,0.0
NaCuO2,0.0
NaCuMoO5,0.0
NaCrN2,0.0
NaCr6O11,0.0
NaCo11O17,0.0
NaCo(PO3)3,0.0
NaCeV4O12,0.0
NaCeTi4O12,0.0
NaCeTi2O6,0.0
NaCeS2,0.0
NaCeSe2,0.0
NaCo2H3(SO5)2,0.0
NaCo2O3,0.0
NaCr4O8,0.0
NaCr4O12,0.0
NaCr2O4,0.0
NaCoCu3Se4,0.0
NaCoAsCO7,0.0
NaCo3O4,0.0
NaCo2P2O9,0.0
NaCoO2,0.0
LiHfMg6O7,0.0
LiHfPt2,0.0
LiHfRh2,0.0
LiHfS2,0.0
LiHg,0.0
LiHg3,0.0
LiHgPd2,0.0
LiHo2Al,0.0
LiHo2In,0.0
LiHoPd2,0.0
LiHoIn2,0.0
LiHoHg2,0.0
LiHoGe,0.0
LiHoAu2,0.0
LiHo3,0.0
LiHfMg6,0.0
LiHo2Ta2O8,0.0
LiHo2Ru,0.0
LiHo2Rh,0.0
LiHo2Os,0.0
LiHo2Ir,0.0
LiHo2Tc,0.0
LiHfMg30O31,0.0
LiGePd2,0.0
LiGeIr2,0.0
LiGeAu2,0.0
LiGe3,0.0
LiGePt2,0.0
LiGdSe2,0.0
LiGdGe,0.0
LiGeRh2,0.0
LiHf2Ir,0.0
LiHfMg14O15,0.0
LiHfIr2,0.0
LiHf8(N2O)4,0.0
LiHf2Re,0.0
LiLa2Co2Sb2(PbO6)2,0.0
LiLa2Ir,0.0
LiLa2Os,0.0
LiLa2ReO6,0.0
LiLa2Ru,0.0
LiLa2TiO6,0.0
LiLa3,0.0
LiLa3Ti4O12,0.0
LiLa4Ho4O12,0.0
LiLa8Cu3O16,0.0
LiLu2Ga,0.0
LiLu2Co,0.0
LiLu2Al,0.0
LiLaTl2,0.0
LiLaSn2,0.0
LiLaHg2,0.0
LiLaGe2,0.0
LiLaBi2,0.0
LiIn4(Ge2O7)2,0.0
LiIn3,0.0
LiIn2Ru,0.0
LiIn2Ir,0.0
LiIn2Ag,0.0
LiIn2,0.0
LiIn2Rh,0.0
LiInGe,0.0
LiLa2(AsO4)2,0.0
LiIrF6,0.0
LiIr3,0.0
LiIr,0.0
LiInHg2,0.0
LiInSe2,0.0
LiInRh,0.0
LiInN,0.0
LiInMo3O8,0.0
LiInRh2,0.0
LiGd3,0.0
LiGd2Ru,0.0
LiFe2(PO4)3,0.0
LiFe2(SiO4)2,0.0
LiFe3(SnS4)2,0.0
LiFe3O4,0.0
LiFe3P3O13,0.0
LiFe4(BO3)4,0.0
LiFe6Ge5,0.0