formula,band_gap
Sm2Nb2S7O30,0.1172999999999999
CeCu(WO4)2,0.1174999999999997
Mg30NbVO32,0.1175000000000006
Ca2CuN2,0.1177000000000001
NpPH3CO5,0.118
Sr2Ca14Mn14Al2O41,0.1180999999999996
Ti3Fe2Te(PO4)6,0.1181999999999998
SrEuHfTiO6,0.1183000000000005
BaSrSmFeO6,0.1184000000000002
Cs2Zr7CI18,0.1184000000000002
BaTmCo4O7,0.1187
AlReGe,0.1187000000000004
SnSe,0.1189
In2Bi2O7,0.1191000000000004
TbGa2Ag,0.1192000000000002
SrCr(PO4)2,0.1192999999999999
RbCrCl3,0.1194999999999999
KLiMg14O15,0.1197999999999996
Mg149Cl,0.1198000000000001
Mg149Nb,0.1198999999999999
Rb3FeCl5,0.1199000000000001
SrSbSe2F,0.1201000000000003
CsZn4P3,0.1202
CaFeNiP2O9,0.1203
Sr2YGaCo2O7,0.1203000000000003
Mg3Sb2O7,0.1203000000000003
Tl2SnHgTe4,0.1204
Sr2MgN2,0.1204
Sr2HgPb,0.1204999999999998
Li4Mn3Fe3(TeO8)2,0.1206999999999993
Ba3Sb4O,0.1206999999999998
Li2CuAsCO7,0.1206999999999999
ZnSnN2,0.1207000000000002
PrZnSbO,0.1208
Li4Mn5CoO12,0.1208
Rb2U5(PO7)4,0.121
FeCo(PO4)2,0.1210999999999999
VCu6AgMo5O24,0.1211999999999999
NaTlO,0.1211999999999999
BaAgP,0.1217000000000001
V3CrNi2(PO4)6,0.1218999999999996
CaCuSiH2O5,0.1219999999999998
NdMoI4O15,0.1219999999999998
FeCoPO5,0.1222000000000003
VPS3,0.1223
In4Te3,0.1223999999999998
Ba2Gd2Si4O13,0.1224999999999996
Os4SeS11Cl8,0.1225
Na(LiSi2)3,0.1226000000000002
CuH6Se2NClO6,0.1226999999999999
PrMoO5,0.1227999999999999
Li5Ni5(SnO6)2,0.1229999999999993
NdCuO3,0.1229999999999997
Li4Mn2Cr3Sb3O16,0.1230000000000002
SrCa7Mn6Al2O21,0.1230000000000002
Mn2P5O16,0.1231999999999999
Li9Mn7V12O48,0.1233999999999999
Li4Nb3V3(SnO8)2,0.1234000000000001
Al2Cu3(SiO4)3,0.1234999999999999
PrTeAs,0.1237000000000003
VPCl9,0.1237999999999999
RbCu3P3(O4F3)2,0.1238
Na3UO4,0.1241000000000003
Y4RuI5,0.1243999999999996
Eu(YSe2)2,0.1243999999999996
Pr3OsO7,0.1244
Lu3Mg2WS8,0.1244000000000005
Sr2LiRh,0.1244999999999998
TiAlFeCo,0.1246
K2CoO3,0.1251999999999999
Fe19Co5O32,0.1254999999999997
Ti3Fe2Cu(PO4)6,0.1255999999999999
BaEuNbSbO6,0.1256000000000003
Li3FeF5,0.1257000000000001
Ca8Mn6Al2O21,0.1258000000000003
TmP5,0.1259000000000005
Na3Ce2C4O12F,0.1259999999999994
VCuHPbO5,0.1259999999999999
Ca3Mn2(GaO5)2,0.1267
PrHIClO13,0.1268
TlSbTe2,0.1268000000000002
CuH6C2O7,0.1268999999999999
MgTi2P2(O4F)2,0.1269
MgCr4(CuS4)2,0.1269999999999997
Li2CrP4O13,0.1271
BiSb8Pb6AuS20,0.1272999999999999
Tb2Nb2S7O30,0.1275
Pr2Nb2S7O30,0.1276999999999999
K2U2Cr2H2O17,0.1279000000000001
Ge5Ir4,0.1279000000000003
Sr3SbAs,0.1279999999999996
Mg5(SiO3)6,0.1282999999999998
K2Ag4S3,0.1282999999999998
YCrO4,0.1283999999999996
NaNdV4O12,0.1284
FeNiSb6,0.1284999999999998
EuHfS3,0.1287000000000002
Sr(As3Pt2)2,0.1287000000000002
Rb2SnI6,0.1288
Mn3(SO6)2,0.1289
Nb10Se40I3,0.1289000000000002
BaP3Pt2,0.1291999999999999
Mn3Nb(PO4)4,0.1291999999999999
Ho(BO2)6,0.1291999999999999
Tl6WO12,0.1292999999999997
Pr4Mg5Ge6,0.1293000000000002
Li6Mn5SbO12,0.1299999999999999
Mg14AlNiO16,0.1301000000000005
CuTe2O5,0.1303
NbPHO5,0.1305
Cu5(AsO5)2,0.1305
Li4V3Cu(PO4)4,0.1306000000000002
SmHIClO13,0.1306999999999999
Li6Bi2B4SO16,0.1307
Rb2PuCl6,0.1311
MnCoH18(CN2)6,0.1312999999999999
Li4Ti3V3(WO8)2,0.1314000000000001
La3U2O10,0.1317000000000012
TePb2S,0.1318999999999999
Na4SrCaSi2,0.1322000000000001
LiU3O8,0.1322999999999998
Tb2SnS5,0.1322999999999998
Ba2VP2O11,0.1322999999999999
Cu3B7ClO13,0.1323999999999996
Li4MnOF5,0.1323999999999999
K5Li2EuF10,0.1326
Na8Bi5O14,0.1326999999999998
V5Zn4(TeO6)3,0.1326999999999998
La6Fe(SiS7)2,0.1327999999999995
NaSmV4O12,0.133
CdAs2,0.1331999999999999
Nd4MnS7,0.1332000000000004
Rb4NpS2ClO10,0.1333000000000002
PuP2H4CO7,0.1335999999999999
Y6CoI10,0.1337000000000001
Cu4GeS4,0.1337000000000001
Mg30NbCdO32,0.1338000000000008
KTiP2O7,0.1339999999999994
ZnIn2Cu2S5,0.1341000000000001
CeB2ClO4,0.1345
Ba2PrRuO6,0.1345
Cr5InS8,0.1345999999999998
MgAl2H4Pb2(O2F3)2,0.1345999999999998
Lu4FeS7,0.1345999999999998
LiTiV3O8,0.1346000000000002
Sr(CdAs)2,0.1347999999999998
Mg30TiSiO32,0.1348000000000002
Na6U(SO5)4,0.135
Na4Mg(NiO2)5,0.1350000000000002
ZnCuP2O7,0.1355999999999997
LiCo(PO3)4,0.1360000000000001
Th(PRu)2,0.136000000000001
YN3O10,0.1362000000000001
Ba3Y5(CuO5)3,0.1364
WN2,0.1364999999999998
K2Bi8Se13,0.1364999999999998
CeSCl,0.1365000000000007
Rb2Cu(BrCl)2,0.1365999999999999
TiZnF5,0.1366
LuP5,0.1367000000000002
Co3Sb(PO4)4,0.1367000000000002
AlPb3OF9,0.1367000000000002
Mn2Zn3(GeO4)3,0.1370999999999997
YP5,0.1371000000000002
CaV2P2(H4O7)2,0.1371000000000002
Sr3MoN3,0.1371999999999995
Na2BiBAsO7,0.1372
Na3(VSe2)5,0.1373000000000002
MgCrWS4,0.1375999999999999
CsUPNO9,0.1377999999999999
AgBi2WO8,0.1379000000000001
NaCa2ZrSi2O9,0.1379999999999999
SrMg30BiO32,0.1379999999999999
Li2Co4O3F8,0.1383999999999999
Gd3RuO7,0.1389
Eu(DyS2)2,0.1394999999999999
Li2CeSm(MoO4)4,0.1394999999999999
Eu(SbS2)2,0.1394999999999999
Co2(SO4)3,0.1395
Sc2ZnSe4,0.1396000000000001
Sm2Mn3(SbS3)4,0.1398000000000001
NaCeMnWO6,0.1398999999999999
Mn5Cu(PO4)4,0.1399999999999996
ZrInCuS4,0.1399999999999996
Rb2AlInH6,0.1400999999999999
Cu(PtS2)2,0.1401000000000003
Nd3GaFeSe7,0.1405000000000003
Na6Co2B4SO16,0.1406999999999998
LiDySe2,0.1408
K4Li3(FeO4)2,0.1408999999999999
KPrEuWO6,0.1410999999999997
Li2TiP3O10,0.1411000000000002
CaV4O10,0.1412999999999999
Li5Fe4(PO4)4,0.1413000000000002
NaCe(PSe3)2,0.1413999999999999
GdCu(WO4)2,0.1414999999999997
V2OF6,0.1414999999999999
In5CuTe8,0.1415000000000006
MgV4O5F7,0.1415999999999999
MgCo3TeO8,0.1417000000000001
La7SmMn6(FeO10)2,0.1420000000000003
MnTe4(H3N)6,0.1421999999999998
Mg149Mo,0.1422000000000003
MnCdCu4(SnSe4)2,0.1423000000000001
CaCuAs2O7,0.1423999999999998
K8Zr6MnBr20,0.1425
Li4NbFe3Cu2(PO4)6,0.1427
Eu(LuSe2)2,0.1428000000000002
As9Pb7S20,0.1430000000000006
MgNbTlBr4O,0.1431999999999997
Li3VCr4O8,0.1432999999999999
CaTiP2O7,0.1433999999999997
LiCu2(C2O5)2,0.1433999999999999
ZnGeP2,0.1434999999999995
CaMg30NbO32,0.1434999999999995
CsSrTa6Cl18,0.1436000000000001
LiSm2Br5,0.1436000000000001
BaSrNdFeO6,0.1436999999999999
LiVSiO4,0.1438999999999999
Na3CuPCO7,0.1440999999999999
Ca3V2(Si2O7)2,0.1442999999999994
Co(PO3)3,0.1442999999999999
Si(Hg2Se3)2,0.1443000000000001
UMoO5,0.1444
LiBiO3,0.1445000000000003
CuAg2(NO3)4,0.1447999999999999
NaCeHf2O6,0.1448
P2W3O13,0.1452000000000002
EuZrS3,0.1452999999999997
Be3P2,0.1452999999999997
Sr21(Mn2Sb9)2,0.1454000000000004
Ba3Na(SiO4)2,0.1454999999999999
Ce2S4O17,0.1454999999999999
Na2MgMn4O8,0.1457000000000001
NaCeHfZrO6,0.1458000000000003
Ba2AlCuF9,0.1461999999999998
Mn3ZnP3O13,0.1462999999999998
Gd3NbS3O4,0.1465999999999998
K4U5B2O21,0.1466999999999999
Ce(FeAs3)4,0.1467
Ba2GdRuO6,0.1467
CrCl3,0.1467999999999998
YCuTe2,0.1468000000000007
K2NaAs,0.1469
K(SeO3)2,0.1469
Te2W3Se4,0.1471
RbGa3,0.1471999999999997
Ca2MnReO6,0.1472000000000006
Sr2MnSbO6,0.1474000000000002
Pb4C2SO12,0.1475999999999997
Ba3Ge9O22,0.1475999999999999
Na2CaSi,0.1478000000000001
Li2AgSb,0.1478000000000001
InGa2(AgSe2)3,0.1481000000000001
Mg2Mn3O6,0.1482000000000001
Mn9FeO10,0.1482000000000001
Na3InAs2,0.1482000000000001
Ca3Cu2Ni(PO4)4,0.1482999999999998
RbUCrIO10,0.1483
Rb11Mn8O16,0.1485999999999996
CdHg3Te4,0.1486
SbH(OF3)2,0.1486999999999999
KCeZr2O6,0.1488
LiHoSe2,0.1488
TlOF,0.1490999999999998
KCeHf2O6,0.1491000000000006
LiCu2P5O16,0.1493999999999999
TlCr5S8,0.1494999999999997
Np(Mo3Se4)2,0.1495999999999995
K2BaCdSb2,0.1500000000000003
UTa2O7,0.1501999999999999
Cs3Mo2Cl9,0.1505
MgV2(CuO3)2,0.1505999999999998
Nd2Mn3(SbS3)4,0.1506999999999996
KFeBr3,0.1507
KMnP(OF)3,0.1509
YN,0.1510000000000007
MgNiAsO5,0.1511999999999997
Nb2F5,0.1513
Sr2Ca14Mn14Al2O47,0.1513
K2AsAuBr6,0.1518
MgCoPO5,0.1518999999999999
CaEuYSbO6,0.1520000000000001
Ca4V5(TeO6)3,0.1520000000000001
Ca21(Cd2Bi9)2,0.1520000000000001
LiEuPS4,0.1522999999999994
Sr2Sn,0.1523999999999996
V2P4S13,0.1524000000000001
PuP2H2CO6,0.1525999999999996
H32RuC8N4Cl7,0.1525999999999999
CaCoNiP2O9,0.1526
Lu(AlC)3,0.1528999999999998
TmN,0.1528999999999998
CsLiU(PS4)2,0.153
U2PbI2O13,0.1531000000000002
SrCaV4O12,0.1532999999999997
MgCu(PO3)4,0.1534999999999997
LiMoPO5,0.1537000000000001
Na3CuP2H6NO13,0.1538999999999999
Rb2PuCl5,0.1543999999999998
SbIrXeF12,0.1545
Zn4GeN4,0.1545999999999998
Ta4Te9I4O,0.1548999999999996
Li9Nb3P8O29,0.1548999999999996
SrPrEuNbO6,0.1548999999999996
MgCr3Se3(SO8)3,0.1548999999999999
V7(O2F3)3,0.1551999999999997
YCu3(MoO3)4,0.1553999999999993
PaCl4,0.1553999999999993
Rb2Tb10C4Br19,0.1554000000000002
Sr(GaAs)2,0.1558999999999999
EuNbGaSnO6,0.1559000000000008
NaTiCuS3,0.1559999999999997
K2InGaI6,0.1559999999999999
CuH8C4O5,0.1559999999999999
Bi4O3F7,0.1560000000000001
Ca5(InSb3)2,0.1562000000000001
MnPS3,0.1562000000000001
UH4(C2O5)2,0.1562999999999998
Ho2Cu2O5,0.1562999999999998
LiLa4CoO8,0.1563999999999996
KNaCu3S3O13,0.1564999999999998
TlCuHCO4,0.1564999999999998
Mn3Cr3(SbO8)2,0.1566
Ca8Si4(O5F)3,0.1568
Y(BO2)6,0.1572
PrH3,0.1572
Rb3Pb4Au,0.1573999999999999
NaPrPCO7,0.1574000000000001
CeSiBO5,0.1574999999999997
Mn5(TeO6)3,0.1575000000000002
Ba(CdAs)2,0.1575999999999999
TmPS,0.1576000000000004
Ba5Cu4ClF17,0.1576999999999999
Rb4Ga8P10O41,0.1577
Mg149Te,0.1577000000000001
La4Se7S,0.1580999999999992
Fe4As3O16,0.1585
Li2Ga7,0.1587
K2EuF5,0.1588
YCrB4,0.1589
KMgMn2(MoO5)2,0.1589000000000002
ZnCu2SiTe4,0.1589999999999998
Y5RuBr9,0.1591
Li9Cr12Fe7O48,0.1591
BaNa4Cu3F12,0.1595999999999998
RbB2Se3O10,0.1596
InAgSeS,0.1596999999999999
Ga2Hg5Se8,0.1601000000000001
Te15Mo2(Br6O)2,0.1602000000000001
K2Zn5As4,0.1604999999999998
MgV4Ag2O11,0.1604999999999998
CaCe4Si3O13,0.1608
UCu4Pd,0.1609999999999996
Cs4Mg(TiS3)2,0.161
ErCrB4,0.1610999999999993
Zn4Cr5(TeO6)3,0.1611000000000002
In5CuS8,0.1614000000000004
Ca4Fe9O17,0.1614000000000004
MgAl2(PO5)2,0.1615000000000002
CsCaTa6Cl18,0.1615999999999999
Na2Ni3O5,0.1616999999999997
Gd2Cl3,0.1617000000000001
Na2Cu3H8(CO2)8,0.1621
Eu4C2N4F5,0.1623999999999998
Na5(WO3)7,0.1629
Ca4H16C8O25,0.1629
K2Mn(PS3)2,0.1633999999999997
Li2PmGa,0.1634999999999999
LiErSe2,0.1636999999999999
Ba11(CdSb2)6,0.1636999999999999
LiGd2RuO6,0.1636999999999999
Li5Co4(NiO6)2,0.1640999999999999
Tl2Cu3(SeO3)6,0.1640999999999999
KFeCl4,0.1641
TiAlF5,0.1642000000000001
Co3Ni3(TeO8)2,0.1646999999999998
ZnCr4CdSe8,0.1648
Zr2AgPdF11,0.165
NaBeSi3O8,0.1652
MgCo6(O3F)3,0.1652999999999997
Li4Ti3Cr5O16,0.1653000000000002
CuTe2PbO7,0.1653000000000002
Rb3Cu2Cl7,0.1654000000000001
Mn5Ni(PO4)6,0.1655999999999999
NaSr3CeP3O13,0.1657000000000001
MgV3OF11,0.1657999999999999
Ba4VN4,0.1661000000000001
EuMoO4,0.1665999999999998
W3O10,0.1666
CoHCO4,0.1667
MgCu2(RhS2)4,0.1668000000000002
Y2GeI2,0.1671
Li2Bi(PO4)2,0.1672
GaGeTe,0.1672000000000002
Ce4B14O27,0.1673999999999997
Eu(BiS2)2,0.1676999999999999
HoCrB4,0.1677999999999997
SrMg14CrO16,0.1679999999999992
Tl2Cu(CO3)2,0.1679999999999997
Bi2TeI,0.1682000000000005
Dy4FeSe7,0.1685000000000003
Li5CoO3F,0.1686
Zn(MoSe2)2,0.1687000000000003
Na3Li5Mn5O9,0.1688
Nb4SiTe4,0.1692
Ca2InOsO6,0.1694999999999993
HfSiRu2,0.1694999999999993
AlSn(WO4)2,0.1697000000000006
K2CoO2,0.1699000000000001
EuPSe3,0.1699999999999999
RbUF5,0.1703999999999998
V2Co3Te3O16,0.1703999999999998
Ti2Fe(PO4)3,0.1704999999999996
EuMgH4,0.1705999999999998
Mg14VNiO16,0.1706000000000003
TiFe2Ge,0.1708999999999996
Mn15(Br3O10)2,0.1709
Mg2TaNb2O8,0.1711999999999998
Pr3RuBr3,0.1713
MgCo4NiO8,0.1713
Li5Mn5O12,0.1713999999999997
MgReO4,0.1714000000000002
LiVP4(H2O7)2,0.1714999999999999
Dy2SnS5,0.1715999999999997
K5Te3,0.1715999999999999
MnCrCoO4,0.1716999999999999
ZrS2O9,0.1716999999999999
Li4Cu3WO8,0.1720000000000001
RbNdTe4,0.1721000000000003
BaCaDyFeO6,0.1723000000000003
MgMn3CoO8,0.173
Na3GdBr6,0.1732
CrH6SO7,0.1732
Zn5Fe3(P3O14)2,0.1733
Na4XeO12,0.1733
Bi2Te4Pb,0.1735000000000006
PrMg149,0.1735999999999999
Zn2SbN3,0.1737000000000002
CdGa4As4S,0.1737999999999999
Sb5(TeO6)3,0.1739000000000001
GdBO3,0.1743000000000001
H24OsC8(NF3)2,0.1743000000000001
Ca3Co2O7,0.1744999999999996
K2TcI6,0.1746999999999998
Sr16Cu8O23,0.1748000000000003
Ba3Cu2(ClO2)2,0.1749
Rb6Na2U2C6O23,0.1750999999999999
Na2EuGeSe4,0.1751
UH2C(OF)3,0.1751
Zn(BiO3)2,0.1753
Si2Ag9NO11,0.1753
AgSb3PbS6,0.1754999999999995
Li5Co4(Si3O10)2,0.1757999999999999
Li4CrP2O9,0.1758999999999999
MgNb2(PO5)2,0.1760000000000001
Mo2(CN2)3,0.1760999999999999
NaNb10O18,0.1761000000000008
Tl4PbSe3,0.1761999999999997
KPrTe4,0.1762999999999994
MnZn3(CrSe2)8,0.1762999999999999
In2CuSe3I,0.1766999999999998
Li5Ti2V5O12,0.1772
Sr11(Ge2N3)2,0.1774
Te8RuCl2,0.1775999999999999
CuBH4ClO4,0.1775999999999999
Sr21(Cd2Bi9)2,0.1777999999999999
LiCuPO4F,0.1784000000000001
Ag3PO4,0.1784999999999996
Cu3BiTe2ClO8,0.1784999999999996
Cr3BO6,0.1785000000000005
MnCuO2,0.1786999999999996
Cu4H6SO10,0.1787
Cu4BrCl3,0.1787
In5AgTe8,0.1787999999999998
Mg2Ta2CuO8,0.1789999999999998
Cs3Bi,0.1789999999999998
BaSi9Rh2,0.1793000000000004
Sm2Sc2O5,0.1795
Fe3(PO5)2,0.1795999999999999
BaCaTbFeO6,0.1800999999999999
ZnCoNiP2O9,0.1800999999999999
Cs2CuSi5O12,0.1801000000000003
FeSi,0.180200000000001
Sr4BiO7,0.1803000000000001
Ba5Fe3W2O15,0.1807999999999996
Na6Ca6SiGe2S11O48,0.1807999999999999
LaTaCrO6,0.1808
Mg3Ni2(GeO4)3,0.1810999999999998
RuF4,0.1813
Ti5Pb5O14,0.1814999999999997
Li5Mn2Ni3O10,0.1815999999999999
ZnCdSb2,0.1817000000000002
PaBr4,0.1821999999999999
NbCuO3F,0.1821999999999999
Na3Cu2(MoO4)3,0.1823000000000001
NaMg4(SiO3)6,0.1823999999999999
CaTbEuNbO6,0.1824000000000003
BaCrInWO6,0.1824000000000003
Pr4MnS7,0.1827000000000005
UTa2S6Cl6O,0.1829999999999998
Sr(InP)2,0.1833
Li2Mn3SbO8,0.1833999999999997
Na7MgCu3O8,0.1834000000000002
Ce3MgAlS7,0.1834999999999995
InGa(CuTe2)2,0.1834999999999995
ZnFeCu4(GeS4)2,0.1834999999999995
TaZn2AgO6,0.1835999999999999
MnSnO3,0.1836000000000002
K30Ga9As19,0.1837999999999999
Ba2ZnFe2F14,0.1839000000000001
Eu2MgAg2(WO4)4,0.1839999999999997
Mn3Cr(PO4)4,0.1839999999999997
Tb4Mo4O11,0.1840000000000001
LaAs2,0.1840000000000001
B8P,0.1845999999999996
SrV5NiO11,0.1852
Na2IO6,0.1855
LaEu2NbO6,0.1855000000000002
Nd2(SeO4)3,0.1856
Na2Cu2Si4H4O13,0.1856999999999997
Sn5Ge2(SbTe5)2,0.1858999999999993
LaZnCuP2,0.1859000000000001
Hg5(ClO2)2,0.1861999999999999
Rb4Mg(Se2O7)2,0.1861999999999999
Fe3Co2Cu(PO4)6,0.1861999999999999
MgSnAs2,0.1863999999999999
EuZrO3,0.1865999999999994
ScNiBi,0.1869000000000005
BaAlCo4O7,0.1869999999999998
Te4Mo3Se2,0.1871
Li2Mn5F17,0.1872
CsRb2Bi,0.1872
Na2TiF5,0.1873999999999998
RbAlAgF6,0.1874000000000001
Li3V3CrO8,0.1876000000000002
AgS2(O3F)2,0.1877999999999999
Ba2HfUO6,0.1878999999999999
Li6CuO4,0.1878999999999999
Sc7CoCl12,0.1880000000000001
Ti3NbCo2(PO4)6,0.1880000000000001
LiLa2RuO6,0.1880999999999995
PtS,0.1882000000000001
Cs2NaUBr6,0.1882000000000001
RbNa2Al3Si3O13,0.1882999999999999
Na2TiPCO7,0.1887000000000003
CaMg14SiO16,0.1887000000000007
LiYSe2,0.1888
Cd2TeSe,0.1889
Ag2Bi2SeS3,0.1889999999999991
YCuF5,0.1891
Si16O32F,0.1894
MgCo3NiO8,0.1895000000000002
Ca2GaFeO5,0.1896999999999997
Mn7Cr12O48,0.1896999999999999
EuZnSnWO6,0.1897999999999999
LiTi2Co3O10,0.1897999999999999
Ba(As3Pt2)2,0.1901000000000001
K2UI5,0.1901999999999999
CsTi2I7,0.1901999999999999
LiTi(SO4)2,0.1903000000000001
Li4NbCo3O8,0.1905000000000001
MgNb2Al2O8,0.1905000000000001
Zn3CdO4,0.1909
LiMnNiO4,0.1909
Ba(P2Au)2,0.1909999999999998
ZrMn(CuS2)2,0.1910000000000007
Na(SeO3)2,0.1912
Na2(GaSb)3,0.1913
Sb3P6WO24,0.1913999999999998
CdRe2(H2O5)2,0.1914
Re2C3I4O3,0.1915
Ce(P3Ru)4,0.1915000000000013
CsAg3Se2,0.1917999999999997
Rh2S3,0.1917999999999997
NdMg149,0.1920999999999999
Rb2O,0.1921
Pr5(RuO6)2,0.1921999999999997
Rb2Ag4S3,0.1922000000000001
Cs10Tl6SiO4,0.1922999999999999
MnTl2GeTe4,0.1924000000000001
Li6La3(SbO6)2,0.1928
Tb3CrSe6,0.1928
K2LaN5O17,0.1928999999999999
K4Na4Mo3W5O24,0.1930999999999998
V3Zn3(AsO4)4,0.1930999999999998
Zn3Cr6(FeO6)4,0.1932
RbPrTe4,0.1932
Ca2Pr4(Mo2O7)3,0.1934000000000004
CuB4O7,0.1935000000000002
TeMo5O16,0.1939999999999999
Na2NpH2(CO3)3,0.1942999999999997
Bi2IBr,0.1943000000000001
Li2V2FeO6,0.1943000000000001
MgTi(PO3)4,0.1943999999999999
Ti3Zn3(AsO4)4,0.1944000000000003
Mg2CoH5,0.1946999999999996
Rb3AuCl6,0.1947
Sr3Fe2Cu2S2O5,0.1947000000000001
Pr6OsBr10,0.1947000000000001
RbZn4P3,0.1947999999999998
Li8(NiO2)11,0.1948000000000003
Mn2Cu5P4(HO9)2,0.1951999999999998
MgCu2(BiO4)2,0.1953
UI2O9,0.1956
Rb4Fe2O5,0.1956999999999999
Li4Mn2Nb3Fe3O16,0.1957000000000004
Ba2FeN2,0.1957999999999997
Eu2CuH4(SO6)2,0.1957999999999999
Na3NiO2,0.1960000000000001
Cr(Bi7O12)2,0.1960000000000001
KEuH2S2O9,0.1962999999999999
WBr4,0.1962999999999999
Ba2CuGe2O7,0.1962999999999999
TmCrB4,0.1963999999999996
V2CuO6,0.1968999999999998
LiFe2(SO4)3,0.197
Ba3BN3,0.1975000000000002
Rb6U3Sb2(PS4)8,0.1975000000000002
Cu29(Ag6As7)2,0.1978999999999997
Rb3AuO,0.1978999999999999
Sr8La3(RuO7)3,0.1979000000000002
Li4Mn3Cr2Sn3O16,0.1980999999999997
Li2UCl6,0.1980999999999997
Mo2RuSe4,0.1981000000000001
Ca2AsAu,0.1981000000000001
BaLaMgRuO6,0.1981000000000001
CsCe(PO3)4,0.1981999999999999
Ba2CoReO6,0.1981999999999999
RePCl9,0.1982000000000001
Zn4FeCu10(GeS4)5,0.1982999999999997
Cu2(ReSe2)3,0.1983000000000001
Ag5Te2Cl,0.1984999999999996
CuSn(PO4)2,0.1989
V2P5O16,0.1989
Fe(SbS2)2,0.1989
BaNdEuWO6,0.1989999999999998
Ca3Bi2(AsO6)2,0.199
Cs2K2Pd2N8O25,0.199
KZnAs,0.1991
Ga2CuSe3O10,0.1994000000000002
TlHgAsS3,0.1995
Cs12Sn2Bi6O,0.1996000000000002
UHg3(TeCl3)2,0.1998000000000002
ZnCuAsO5,0.1999999999999999
ErMoO5,0.2000999999999999
NdCuPbC3O11,0.2002
Sr19In8N7,0.2002999999999999
Li11TiP5,0.2005999999999996
Na7Cr2O6,0.201
Na3VP2O9,0.2014999999999998
ZnFeNiP2O9,0.2017999999999999
VFeSbO6,0.2019000000000002
LiV4O8,0.2019999999999999
Li2EuGeS4,0.2021000000000001
Mn3Nb2Cr3O16,0.2024000000000001
ZnNiBiO5,0.2029
K2Mg(FeO2)2,0.2029
Na3MnCoNiO6,0.2029999999999998
Li14Co2S9,0.2035
La5Ga4SnSb10,0.2036999999999995
MgCu2AsO7,0.2037
Li3LaSb2,0.2038999999999999
Na6Mg8Nb4Si3(S5O24)3,0.2039000000000002
Th2FeS5,0.2039000000000008
Ca3Ag2(GeO4)3,0.2039999999999999
Ce3Bi4Pt3,0.2042000000000001
In4S3N2,0.2042999999999999
LiAsSe2,0.2048000000000001
ErTc2W,0.2050999999999998
La2Ta2O9,0.2052
Re3(PbS3)2,0.2053000000000002
H16Ru3C6(Cl3O7)2,0.2054
Zr2Ag3F14,0.2055999999999997
EuZr4O9,0.2057000000000002
Cs2CeCuI6,0.2059999999999999
LiLa6Mn3O14,0.2060000000000004
KAlBP2O9,0.2061
Li9Bi5O13,0.2063000000000001
LiNdBO4,0.2064999999999999
Ca6Fe(CoO4)3,0.2065000000000001
Sr6Ca2Fe7CoO20,0.2066000000000003
Ca(SnO2)4,0.2066999999999996
Mg30TiCuO32,0.2068000000000003
TiV3O8,0.2069
Na2ZnPO5,0.2072
GdNbO4,0.2072000000000002
Li3V2(CO3)4,0.2072999999999996
MnCN2,0.2076000000000002
Dy3AlFeS7,0.2077999999999997
Ag5Te2Br,0.2078999999999999
Na2Nb2W2O13,0.2081
La(CdAs)3,0.2082999999999999
Mg30TiNiO32,0.2083000000000003
SiSbPt,0.2086000000000005
MgGeP2,0.209
Al9Fe2(SiO6)4,0.2090000000000005
Fe2Cu3(SeO3)6,0.2090999999999998
Zn4SnN4,0.2091
CaMn6O5F7,0.2091000000000002
KNaMoWO6,0.2092999999999998
MgV8O20,0.2095
Li3V8O11,0.2095000000000002
In3Ru,0.2095000000000002
Li2Mg3Si2,0.2095000000000002
Mn7Zn4Si2(AsO12)2,0.2096
TbZnRh2,0.2100999999999997
K2Te2Pd,0.2103000000000001
V25O32,0.2103000000000001
NaP4(W3O11)4,0.2105000000000001
NdAlGe,0.2106000000000003
GaP,0.2108000000000007
Re(Te4Cl3)2,0.2111
Mg14CrSiO16,0.2111
TlIn2GaTe4,0.2111
TlCu3Te2,0.2111
Ce3Ta(Cl3O2)2,0.2115
Ba2Y2CuPtO8,0.2116000000000002
Li4Ti3Sn5O16,0.2119999999999997
Na2InAgBr6,0.2121
BaYMgCu2O5,0.2122000000000001
LiB3H3SeO9,0.2127
CrSn(PO4)2,0.2128999999999994
Cs2Np(SO5)2,0.2130999999999998
Mg30MnNbO32,0.2130999999999998
Rb2PtI5,0.2134999999999998
Rb3Ce(PSe4)2,0.2138
InFe17O24,0.2138999999999997
V6O11,0.2139000000000002
Na2CePCO7,0.2139000000000006
EuNiSnWO6,0.2139999999999995
LiAgSe,0.2139999999999999
BaCu2Ge2O7,0.2139999999999999
V9O17,0.2140999999999997
TmCrO4,0.2142000000000001
KZrCuSe3,0.2143999999999999
LuNiSb,0.2145999999999999
V7(WO5)6,0.2146000000000003
Mg3Cu9(SiO3)16,0.2151
Cu3Hg2(Te3O8)2,0.2151999999999998
BaCaPb,0.2152000000000002
YMg14CuO16,0.2152000000000002
Li(SeO3)2,0.2153
Ag3Sn2(GeP2)3,0.2154999999999995
Na4CuP6H22(N3O11)2,0.2155
Ca3(IrN2)2,0.2155000000000004
V4O5F7,0.2157
VSbRu,0.2160000000000002
KGa3,0.2162999999999999
Sr4Fe3O10,0.2162999999999999
V2GaO5,0.2164999999999994
MgV6(OF5)3,0.2165000000000001
CaV2(CuO4)2,0.2166000000000001
Mg30TiNbO32,0.2166000000000014
Sc7CoBr12,0.2166999999999999
Th2P3O13,0.2167000000000001