formula,band_gap
NaSrDyWO6,2.8974
Pr2Ti2O7,2.898
SrSm2O4,2.8981000000000003
Ca2GeO4,2.8982
Na15Mg4Ta8Si9(PO8)9,2.8982
Nd3AlSi5N10O,2.898299999999999
NiWO4,2.8991
Sr2SiS4,2.8995
K2TiAl(PO4)3,2.8995
RbTa3(TeO6)2,2.8998
Na2Y2B2TeO10,2.9002000000000003
NbTl2PO6,2.9004000000000003
Fe3B7IO13,2.9005
BaCo(SeO3)2,2.901
Pb9(Br5O2)2,2.9011000000000005
MgAs2(XeF9)2,2.9017
La2TiZnO6,2.9018
Li8Fe(O2F)2,2.9018
CaTiSiO5,2.902
Na6Mo11O36,2.9021
Se2O5,2.9034
NaTiAsO5,2.9036
Tl3AsF6,2.9036
Na12TaZn5(PO4)9,2.9036
Rb2NaGaCl6,2.9042
YGaO3,2.9043
Na2HfSi2SnSO12,2.9043
CsFeH24(SeO10)2,2.9045
Gd4B4O11F2,2.905
TbAgH2C2SO9,2.9054
ZnFe(SiO3)2,2.9054
Pr3Ga5O12,2.9055000000000004
Na6Mg4Ta2P6(SO12)3,2.9063
Na2LiGdCl6,2.9065000000000003
NaNbSe2O7,2.9067000000000003
Nd3S2Cl5,2.907
Na2InGaSi(SO6)2,2.9076000000000004
Na12Ta2Zn4Si3(PO6)6,2.9082
CsPbF3,2.908300000000001
Mo2H12C4N2O15,2.9085
Na3AlSn3(PO4)6,2.9092
Ba2Ta2O7,2.9092
NaSr3SbO6,2.9095
Tl2CO3,2.9095000000000004
Sr2Ta2O7,2.9098000000000006
Na3AlS3,2.91
Mg3TeO6,2.9101000000000004
Pb4IF7,2.9103000000000003
VH6CNO3,2.9104
CsHoSiS4,2.9111
Sr3Pr10Al12Si18(N2O)18,2.9111
ZrH8Pb(C3O8)2,2.9122000000000003
Nd3GdAl4O12,2.9123
Na2TiZn2SiO7,2.9128
Na2TaGa3P4(SO12)2,2.9128
YAl6Si30(N15O)3,2.913000000000001
Rb2V2Si8O21,2.9133
Na9Mg2Ta4Si6(PO12)3,2.9134
NaLaScNbO6,2.9138
NaGdH2S2O9,2.9139000000000004
Li5SbO5,2.914
Na6Hf4Sc4Si5S7O48,2.9142
VZnHPbO5,2.9144
Dy2WO6,2.9144
Ti3ZnO7,2.9147
NaCaMgCr(SiO3)4,2.9148
Na2Hf2Mg2SiS5O24,2.9148
Na2BeSiO4,2.9149
Li2Fe2Si2O7,2.9152
KMo4AsO15,2.9155
Na2Li3FeO4,2.9156
CsW3Cl7,2.9161
Li6Ni11(OF12)2,2.9162
Y2Mo(SeO4)3,2.9162000000000003
NaCa8SmTi10(SiO5)10,2.9163
Na6Al4Fe(Si4O13)2,2.9163
RbH,2.9163
Sm2SO2,2.9166000000000003
Na2Ti6O13,2.9167
DyTl(WO4)2,2.9171
LiFe3P3(HO6)2,2.9174
Sn3IF5,2.9176
NaMg30WO32,2.9178999999999995
MnH12N8O15,2.9181
Na3V2PO9,2.9184
Na14La4Ga4Si7S5O48,2.9186
Na2LiBiBr6,2.9192
Sn3BrF5,2.9195
Rb4Mo5H4Se2O23,2.9196
Sr3V3BiO12,2.9198000000000004
NaTl2MoF6,2.9199
Tl5SnF9,2.9199
TaZnBiO5,2.9202000000000004
Na10Ta4Ga4Si9(SO16)3,2.9204
Mg2TePb4WO12,2.9206000000000003
Na2Mg5Zr3(SO4)12,2.9207
NaCa4Ti4Nb(SiO5)5,2.9214
LiZnAsO4,2.9218
NdBr3,2.9221
Rb3Ti4Tl(PO5)4,2.9233
CsRb2AsBr6,2.9235
Rb4WO5,2.9242
Li5NbO5,2.9243
Na2TaInSi2SO12,2.9246
RbOsNO3,2.9249
Na7TaSi6(GeO8)3,2.9249
SnTe3O8,2.9251
Na2NbSi2GePO12,2.9252
TaIn3P2(SO6)4,2.9253
NaNbWO6,2.9255000000000004
GdOF,2.9256
K2AlInCl6,2.9258
Na3Si2Sn2PO12,2.9264
RbInBr4,2.9272
Na6La4Zr4Si5S7O48,2.9273
MnH11C5NO6,2.9274
RbNa2BO3,2.9275
Na3Ca2Ga2PS5O24,2.9277
Na3YTa3Si3(PO8)3,2.9277
MoPb2O5,2.9278
NaCaMgFe(SiO3)4,2.9279
Na10La6Ta2Si7S5O48,2.9281
Rb3Ni2(NO3)7,2.9288
Sb6O5F8,2.9289
Na2Te2O5,2.9290000000000003
RbAg(PO3)2,2.9292
NaY2Ta2P5SO24,2.9294
Te6Cl2O11,2.9294999999999995
Rb3Sc2Br9,2.9296999999999995
PWO4,2.9297
Zn3As2(H2O3)4,2.9298
RbNbWO6,2.93
Y4Ti3SnO14,2.9302
SnH8C2Br3N,2.9304
HXeF7,2.9306
Na3NbSi3GeO12,2.9308
NaTa4Bi5O18,2.9309000000000003
Rb2H4Pd,2.9313
NbTlWO6,2.9315999999999995
CsDySiS4,2.9319
Te4Mo(OF4)5,2.9326
Ca3Ni3(AsO4)4,2.9327
Na2LiInCl6,2.9328
Pr2TeO6,2.9331
NaAl3Tl2(SiO4)3,2.9332000000000003
MgCd3(CO3)4,2.9333
Y7Ta3O18,2.9334
HfNb(PO4)3,2.9335
SrZnCo(PO4)2,2.934
SrMoAsH3O8,2.9342
Na2Ho2B2TeO10,2.9344
Zr(IO3)4,2.9348000000000005
Na10Zr4Zn4Si5S7O48,2.9353
Sr3Zn3Te(PO7)2,2.9354000000000005
RbNaMo3O10,2.9355
Sb4IrC5ClO5F22,2.9357
Os4C13S2O13,2.9367
Na3VB6O13,2.9370000000000003
YTl(WO4)2,2.9371
Na6CaZr7Si6(SO8)6,2.9371
Tl2ZnI4,2.9371000000000005
Na2Y4Al4SiS11O48,2.9376
Na6Zr2Si5Sn2SO24,2.9380000000000006
Nb2Si(PO6)2,2.9381
YV2BiO8,2.939
Na10La4Zn4Si3(S3O16)3,2.9396000000000004
Na7TaIn3Si3(PO8)3,2.9397
KMg3AlGe3(O5F)2,2.9397
NaLi2CoPCO7,2.9398
Nd10Si10N17ClO9,2.9399
Si7GeN10,2.941
RbCO2,2.9410000000000003
Rb2LiSbCl6,2.9411000000000005
Sr3MgO4,2.9413
RbVH6SO9,2.9413
Na3Cr2(PO4)3,2.9419000000000004
Na2MgZr3P4(SO12)2,2.9425000000000003
Na2Te4WO12,2.9425000000000003
NaZnAs(H2O3)2,2.9426
PPb2IO4,2.9428000000000005
Na6Ta6Ga2Si9(SO16)3,2.9429
WF5,2.9429
PtC2(ClO)2,2.9429
TaGaSi(SO6)2,2.943
Ba(HO2)2,2.9433
Na8TaAl3Si5SO24,2.9433
TiAl2O5,2.9434
K3Nb(SO4)4,2.9435
Na10Ta4Al4Si9(SO16)3,2.9436
Na2H8WO12,2.9437
RbMnF3,2.9437
Na14Ca6Hf2Si5S7O48,2.944
LiFe3SiPO8,2.9440000000000004
Li4Nd3SbTeO12,2.9443
Na3Nb4Si5PO24,2.9445
Nd10Si10BrN17O9,2.9445
Na2Zn(HO)4,2.9445
TeH21C7(NCl2)3,2.945
Na4LaGaSi(PO6)2,2.9452
Y2Ge2O7,2.9452000000000003
Rb3Cr(HO)6,2.9455
Nd2Ti3(ClO4)2,2.9455
SmSBr,2.9463000000000004
Th2Cu(PO4)3,2.9463000000000004
Na15Ca8Ta4P15(SO24)3,2.9464
Na6Ta2Zn4P6(SO12)3,2.9473000000000003
SrZnSnWO6,2.9475
MgZr2(BiO4)2,2.9478
YSnF5,2.9483
Si2SeN2,2.9484000000000004
Na3BO3,2.9485
Na7In2Si3Ge2(PO8)3,2.9489
Na2ZnFeF7,2.9496
Sr3Nd10Al12Si18(N2O)18,2.9497
TaPNCl7,2.9498
Na10Zr4In4Si7S5O48,2.9499999999999997
BaLiLaTeO6,2.9506
Na5Ta2Si5Ge2PO24,2.9507000000000003
TlPb2Br5,2.9509
Rb2LiPrI6,2.9512
Na3Mg8Ta4P3(S5O24)3,2.9514
TeSeO4,2.9515
Li2Ni4OF8,2.9515
Na9Ta4Zn8P9(SO8)9,2.9523
Na9Ca8Ta4P9(SO8)9,2.9523
Al2Cd3(SiO4)3,2.9523
Li6MnSiO6,2.9524000000000004
GdH6C4NO9,2.9525
Sr5La6Nb4O24,2.952500000000001
Na8TaIn3Si5SO24,2.9529
SrGeTeO6,2.9532
Sr2H3NO6,2.9533
Sr4NbAlO8,2.9538
NaBrF4,2.9542
Na6Hf6Mg2Si5S7O48,2.9544999999999995
Ti3NbZnBi3O14,2.9545
NaLi2Al3(SiO4)3,2.955
Na2CoH8(CO5)2,2.955
Na8Al2Zn2Si3(SO8)3,2.9552
Sr2V3Bi3O14,2.9555
TlPb8Br9O4,2.9557
Na4LaInSi(PO6)2,2.9558
KSb(PO4)2,2.9559
LiGaBr3,2.956
MgVBiO5,2.9565
NdSn2P10Cl37O12,2.9565
Na8Ca2Al2Si3(SO8)3,2.9567
Na5Zn2Ga2P3(SO8)3,2.9567000000000005
Ba2WO5,2.9569
NbSn(PO4)3,2.957
SnH20C6(NCl3)2,2.9572000000000003
MoF3,2.9582
Na14Mg5Zr3Si6(SO8)6,2.9582999999999995
Li3NiAsCO7,2.9590999999999994
CsScO2,2.9595
Na6Sc4Ga4Si3(S3O16)3,2.9603
Li10Si2PbO10,2.9603
Na10Hf4In4Si7S5O48,2.9605
LiGaS2,2.9608
Sr2WO5,2.9611
Pb5(IF4)2,2.9619
Na2La3TaP4(SO12)2,2.9621000000000004
La2TeO6,2.9624
NaCa2Zr2PS5O24,2.9624
Sr2Co(SeO3)3,2.9627
MgSi7N10,2.963
NdAl6Si30(N15O)3,2.9631000000000007
K10MnMo7O27,2.9634
Na2LaTa3Si2(PO6)4,2.9634
Na3Si2SnGePO12,2.9636
ZrMoWO8,2.9641
Li2Ni2(MoO4)3,2.9643
Na14Si11Ge8SO48,2.9644000000000004
Na2Er2B2TeO10,2.9645
Mg2TaCrO6,2.9652000000000003
Na6Sc2Ta2Si5SO24,2.9656
LiNd2Tl(MoO4)4,2.9659000000000004
LiAs(XeF4)3,2.9661
Na2CaTa(PO4)3,2.9661
Rb2Te(WO4)3,2.9664
Na8Ga2Si5Ge2SO24,2.9669000000000003
Sm2WO6,2.9672
Sr5Ta4O15,2.9673000000000003
Li4Y3CrO8,2.9675
Li3VOF6,2.9678
Na7Y3TaSi3(PO8)3,2.9678000000000004
Na3HfNb(SiO4)3,2.9679
Na3Ta2Nb2Si5PO24,2.968
Pr2Ti3(ClO4)2,2.968
Sn21H14(Cl4O5)4,2.9683
Sr4Ga2O7,2.9684000000000004
Li8Bi2(MoO4)7,2.9688
Ti(SiO3)2,2.9689999999999994
Na4Ca3ZrSiS5O24,2.9692
Na6La4Si3(SO8)3,2.9695
NaH6CSNO3,2.9697
TbTl(WO4)2,2.9699
Ca4Ti4Si3GeO20,2.97
Na5La2In2P5SO24,2.9702
Na2TiSiO5,2.9703
Na14Y4Ga4Si7S5O48,2.9703
NaYTi2(SiO5)2,2.9705
K2Bi(IO3)5,2.970800000000001
LiB2SbO6,2.9711
MgAs2(XeF8)2,2.9713000000000003
SrSiN2,2.9715000000000007
YEr3V4O16,2.9716
Zn4P6N12O,2.9716
Na5ZrGa3Si3(SO8)3,2.9718
ZnAg2C4(SN)4,2.9719
Ba2MnAl2CoF14,2.9723
ZnTe6O13,2.9724000000000004
Ca3AlFe(SiO4)3,2.9725
Na2Lu2B2TeO10,2.9727
Na2ScTaSi2SO12,2.9727
LiY(MoO4)2,2.9730000000000003
SrLiAl3N4,2.9731999999999994
Mn3H6(SO6)2,2.9737
Li4VAs2O9,2.9741
NaLaMg14O16,2.9745
Tm2Zr8O19,2.9749
Rb3In(IO3)6,2.9749000000000003
Na7Si5Sn4PO24,2.9752000000000005
Na5Li(Mo3O10)3,2.9755
Gd4BClO7,2.9755
Na10Ga8Si5S7O48,2.9755000000000003
Na2Sc2Al2SiS5O24,2.9758
TlVO3,2.9763
NiTe6O13,2.9767
Na2Ta4Si5SO24,2.9768000000000003
SrAs2(XeF6)3,2.9771
Tb2SO2,2.9772000000000003
Na20Zr11Si10(PO9)8,2.9772000000000003
LiZnBO3,2.9774
LiMgAl3(SeO4)6,2.9775
Na9Fe(MoO4)6,2.9776
Na9Ta5Zn(SiO4)9,2.9777000000000005
Sr3Li3La5O12,2.9778
K2MnF6,2.9778
NaSn2Cl5,2.9783
LiGd(MoO4)2,2.9784
Rb3NaV4H2O13,2.9785
PBr2N,2.9785
Na2CoPO4F,2.9785000000000004
Te4P2O13,2.9786
RbCrP2O7,2.9787
Na4Ta2Si5Ge2SO24,2.9794
Ge3Bi2O9,2.9794
KNbWO6,2.9797
VXe2F17,2.9799999999999995
LiH,2.981
Na3Ga2Sn2P5SO24,2.9813
Na6S2O9,2.9814
RbNO3,2.9815
Ca3Ge3(BiO6)2,2.9815
PrTaTiO6,2.9822
Na2AlFe(SiO3)4,2.9823
Lu6H40N8O49,2.9824
Y2Te3MoO12,2.9836
VIn(TeO4)2,2.9841
SbH3C2(O2F3)2,2.9845
NaNb2Si2PO12,2.9846000000000004
Na3Gd(PO4)2,2.9847
Ba2NbP2O9F,2.9847
LuAl3(PbO4)2,2.9847999999999995
Sr2TiSnO6,2.9853999999999994
Rb3TaO8,2.9856
NdAl3(PbO4)2,2.9857
NaZn(HO)3,2.9858
BaScO2F,2.9862
TmBr3,2.9866
Ba2Ga11BiO20,2.987
Ni3Te2MoO10,2.9872
CoRe2(H2O3)4,2.9872
Na2GeO3,2.9873
Na3SbCl6,2.9873000000000003
NaIn(TeO3)2,2.9873000000000003
NaLa3TaP3(SO8)3,2.9876
La2WO6,2.9877
InSb(P2O7)2,2.9879
Na4CaGa(PO4)3,2.9883
Rb2LiYI6,2.9884
Te3(PbO4)2,2.9897
SrCaNiWO6,2.9899
Cs2NaInCl6,2.9904
Na14Sc4Ga4Si7S5O48,2.9906999999999995
SmAl3(PbO4)2,2.9907
Mg3Cr2(GeO4)3,2.9909
MgTiNiP2O9,2.9911
Rb2TlFeF6,2.9912
Na4Zr2Sc2Si3(SO8)3,2.9918
Na2VOF4,2.9918
TlInAs2O7,2.992
K6Mo10O33,2.9921
SrPrAlO4,2.9925
Na6Zn3As4H6O19,2.9933
Na4Ta2Si5Sn2SO24,2.9933999999999994
VH4(CO3)2,2.994
Rb2AlInCl6,2.9942
LuSBr,2.9943
Y2Te5O13,2.9944999999999995
Zn3Te2P2(PbO7)2,2.9945000000000004
CsMg30AlO32,2.9952
Zn3(PO4)2,2.9952000000000005
NaAl3(SiO4)3,2.9953
Na5Ga7H12S13O6,2.9954
Li4MnNi3(PO4)4,2.9959
Na4LaTa(SiO4)3,2.9959
NdTa7O19,2.9962
NaHfGe(PO4)3,2.9973
TaNbSi(PO6)2,2.9977
SrNb2O6,2.9977
Mg2Ta2Mn2O9,2.9985
Na3Sc2V3O12,2.9985
Na2NiH20C12(N2O3)6,2.9985
Na6Ta3Al5(PO4)12,2.9988
Na2YTa3Si2(PO6)4,2.9991000000000003
Ni5H2Se6(ClO4)4,3.0001
NaSm9Si6(SO12)2,3.0002000000000004
BP(PbO2)4,3.0005
Na3Ta2In2SiP5O24,3.0005
SrAgB7O12,3.0005999999999995
Zn7H10(SO9)2,3.0011
BN(OF2)2,3.0022
Na15Mg8Ta4P15(SO24)3,3.0024
LiH6NO6,3.0028
MnPH6NO5,3.003
RbGdO2,3.0036000000000005
NaCoH4SO6F,3.0039
Li5Ga(GeO4)2,3.0043
NaBeO2,3.0049
Na5Si3Ge4(PO8)3,3.005
Na4Si3SnGeO12,3.0057000000000005
Na4Ta3GaSi5SO24,3.0066
Tb4MgAl2(FeO6)2,3.007
Na3SiSbCO7,3.008
Cs2LiYI6,3.0085
RbVPO5,3.0085
Na10Ca3Hf5Si6(SO8)6,3.0085999999999995
Rb2SbCl3F2,3.0086000000000004
Na6Sc4Si3(SO8)3,3.0087
ReO3F,3.009
Ho2VPO8,3.0097
Na10Ca4Al4Si3(S3O16)3,3.0114
Na10Y4Zr4Si7S5O48,3.0117
KAsO3,3.0119
Na10Ta6Al2Si11SO48,3.0122
NaCaIn3(SO4)6,3.0126
Nd2TeO6,3.0128
Mg(H2N)2,3.0137
Rb2Na(NO3)3,3.0142
Na6Sc2Al2Si3(SO8)3,3.0142999999999995
Na7Y2Si3Ge2(PO8)3,3.0143000000000004
Na6La4Ga4Si3(S3O16)3,3.0146
Na4Ca3ZrP2(SO6)4,3.0147
NaSnPCO7,3.0149
Na6Ca5TaP3(SO6)6,3.0149
NaGa(TeO3)2,3.015
NaVTeO5,3.0152
Rb4Al2S5,3.0154
Li4Co(BO3)2,3.0154
Rb2Te(H6O5)2,3.0155000000000003
NaYInP(SO6)2,3.0156
Na5TiP2O9F,3.0159
LiCr2(PO3)5,3.016
SmBr3,3.016
Na3AsH22S2O13,3.0169
Na8Ca3ZrSi3(SO8)3,3.0172
NaLaTa3SiP5O24,3.0177000000000005
Na2Ta3AlSi2(PO6)4,3.0178000000000003
RbAl(SeO4)2,3.0179
Mg5Nb(BO4)3,3.0182
PH18PtC6S3BrF6,3.0185
VN3O10,3.0186
Na3Ca8Ta4P3(S5O24)3,3.0187000000000004
Na10TaGa7Si6(SO8)6,3.0188
Na4Zr2Al2Si3(SO8)3,3.0189000000000004
Na3GaCl6,3.019
YSn2BiO7,3.0192000000000005
VH6SO8,3.0193
Zn7Cd2(PO4)6,3.0194
Si4SnH35(C6N)2,3.0196
Rb2Ge2O5,3.02
Ta2ZnO6,3.0212
K2TiOF4,3.0222
Zr(WO4)2,3.0231
LiAlSe2,3.0233
Na3TaTi(SiO4)3,3.0239000000000003
NaCa2Mg2V3O12,3.0239000000000003
Al2Fe(PO4)3,3.0241
Na3Ta10Zn2Si3(P5O24)3,3.0241
Rb2TeH6SeO10,3.0242
Na8Ca2La2Si3(SO8)3,3.0244
NiH32C8S4(NO5)2,3.0247
Na14Hf2Mg6Si5S7O48,3.0252
Rb2CrAgF6,3.0253
RbInTe3O8,3.0269000000000004
Zn2SiH2O5,3.0276
MgSe2O5,3.0276999999999994
NbInO4,3.0277
Rb2MoP2O9,3.0281
Na2ZnGaP(SO6)2,3.0282
NaSc2In2PS5O24,3.0285
LiInSiO4,3.0287
ZrSCl6O,3.0288
Na10Ta2Al6Si7S5O48,3.0297
ZnAg(PO3)3,3.0297
Na2LaInP2SO12,3.0298
SrCrF5,3.0298
Na2Ca(CO3)2,3.0303000000000004
Na4ScTa3Si5SO24,3.0303000000000004
NbGe(PO4)3,3.0304
Na6Ta2Al2Si5SO24,3.0307000000000004
Pr4S3NCl3,3.0308
Na5Y2Ga2P5SO24,3.0311000000000003
LiCrF4,3.0313
SrCaO2,3.0316
TiZnSiO5,3.0316000000000005
NaTaNbSi2PO12,3.032
VH8C2NO3,3.032
ZnCu2H4(SO4)2,3.0321
Na2ScTaSi(PO6)2,3.0332
Lu2Te5O13,3.0335
Y(NO3)3,3.0336
PrVO4,3.0336
SnH6C2S,3.0337
Na6Ta2Ga2Si5SO24,3.0338000000000003
K2MoP2O9,3.0344
Na8ZrZn3Si3(SO8)3,3.0348
MnZnF4,3.0349
Ba3LaBr9,3.0352
LiMg4V3O12,3.0354
Na5Ga2SiSn2P5O24,3.0361
Na3TaAl3P5SO24,3.0363
Na3In4P3(SO8)3,3.0364000000000004
NaCrO2,3.0365
Rb3TiF7,3.037
Li4FeNi5(PO4)6,3.0371
Cs2AgCl3,3.0371
NaZrSn(PO4)3,3.0371
Ti(GeO3)2,3.0372000000000003
MnZnP2O7,3.0374
KHg(PO3)3,3.0375
SnPHO5,3.0375999999999994
Rb2YTlI6,3.0376
Na6Ta2In2Si5SO24,3.0377
Li4Ni7(PO4)6,3.0377
Nd4(WO5)3,3.0378000000000007
Na2La8SiS11O48,3.0388
Na6Hf4Mg4Si3(S3O16)3,3.0388
Na4Hf2Sc2Si3(SO8)3,3.0388
Na2TiZn2GeO7,3.0388
Na10Ca6Hf2Si3(S3O16)3,3.0394
Na4YInSi2SO12,3.0395
Ni3Sb4(OF)6,3.04
Ni5Te4(ClO6)2,3.04
KNaGeO3,3.0403
Mg2As2O7,3.0403
BaY3Br11,3.0403
MgPbF6,3.0406
RbPb2Br5,3.0406000000000004
Rb5Gd(MoO4)4,3.0413
Rb2Sc(NO3)5,3.0417
KAlAs2O7,3.0428
Li2SiSnCO7,3.0436
NdHoZr2O7,3.0438
NaMg30BiO32,3.0444000000000004
RbPbF3,3.0445
Na2ZnH4(SeO5)2,3.0449
NaCa2SiO4F,3.0452
TeCl4,3.0452000000000004
Na6Zn4Ga4SiS11O48,3.0457
MgSbOF3,3.0460000000000003
RbNaTi2(PO5)2,3.0461
Y3Si6N11,3.0474999999999994
Na3Sc2Ta2SiP5O24,3.0478
NaH6C2S2N3O2,3.0479
Na2MoAs2O9,3.0479000000000003
Na5Ca3ZrP3(SO8)3,3.0483
FeH18C3(N3F2)3,3.0483
NaZr2Sn2P5SO24,3.0487
RbLu(MoO4)2,3.0489000000000006
Na7Cr4P9O32,3.0492000000000004
Sm6H44N8O51,3.0493
Na4TaGa3Si3(SO8)3,3.0493999999999994
Zn7H10(CO8)2,3.0495
Na4Mg3ZrSiS5O24,3.0495
NaAs4BrO6,3.0497
Na12Mg2Ta4(SiO4)9,3.0499000000000005
Si2SnO6,3.0501
Mg4Ta2(SO4)9,3.0504
PbCl2,3.0504999999999995
Rb5V3O10,3.0511
Na5LiMn2P2(CO7)2,3.0513000000000003
ZnSe2O5,3.0515
Na2YGaSi(SO6)2,3.0522
Na2Be2O3,3.0523
Ba3V4ZnO14,3.0525
Rb2NaSbCl6,3.0525
Na7TaSi6(SnO8)3,3.0527
MgW2(OF4)2,3.053
Na8Sc3TaSi5SO24,3.0532
SbBr3,3.0532000000000004
Rb2NaInCl6,3.0533
LiSi3BiO8,3.0538000000000003
Zr2In2SiS5O24,3.0538000000000003
Na2Cd3(P2O7)2,3.0538000000000007
Na30Mg4Ta20Si33(SO48)3,3.0540000000000003
Na2Y4SiS5O24,3.0542
Ba(AlSe2)2,3.0544
SrLaScO4,3.0547
Na2Ta3InSi2(PO6)4,3.0549
Te4W(OF4)5,3.0555000000000003
Sn(PO3)2,3.0555000000000003
RbTiAsO5,3.056
Li3SbO4,3.0560000000000005
Li2Si4Ni4O13,3.0563
CsNbNi(OF2)2,3.0565
Rb2Cd3H6S3O16,3.0566
KPrSmSbO6,3.0569
RbVO3,3.0572
Li6WN4,3.0573999999999995
La3Br6N,3.0575
LiBi(PO3)4,3.0575
Pr2WO6,3.0580000000000003
Y2CoTe2(SO7)2,3.0587
NaSn2(PO4)3,3.0589
ZnSi2SnO6,3.0589000000000004
LiPH21S3N7,3.0591000000000004
Na6La2Ta2Si5SO24,3.0592
LiTiPO5,3.0592
Na2Sb5C2S2N2(OF3)3,3.0602
NaCoBP2H2O9,3.0603
ZnCdC4(SeN)4,3.0605
Na4CaIn(PO4)3,3.061
Nd3Ga5O12,3.0611
Y2Mn3(SiO4)3,3.0614
Na2Ti2O5,3.0619
Na6Al2Ga2Si3(SO8)3,3.0621
Na2MgTa(PO4)3,3.0622000000000003
Na2Sc3TaP4(SO12)2,3.0623
WSF4,3.0631
Na2Co(Si2O5)2,3.0632000000000006
NaVH2I2O9,3.0634
NaH2BrO5,3.0639
Na7Si5Sn2Ge2PO24,3.0643
SrGe4O9,3.0645
Ca2VBiO6,3.0645
Tb2CoTe2(SO7)2,3.0646
Na6La3TaSi4(SO12)2,3.0646000000000004
Na2Sb4O7,3.0649
NaScTa3SiP5O24,3.0651
LuNbO4,3.0656000000000003
NiH20PdC4(NO3)4,3.0660000000000003
Na2Hf3ZnSi2(SO6)4,3.0660000000000003
HgClO3,3.0661
Na4Si3(SnO6)2,3.0661000000000005
Pr2Ta2Cl2O7,3.0662
Li4Mo5O17,3.0662
Na4Co3P4(H3O4)6,3.0663
Na3SiSnBO7,3.0665000000000004
As3(HO2)5,3.0666
LuBr3,3.0669000000000004
K2CuH8(CO3)4,3.0672
TmTiClO3,3.0672999999999995
SmV2BiO8,3.0673
SrMg30FeO32,3.0674
VH14C4NO2F3,3.0679
Mn(ReO4)2,3.068
RbSb2C2O4F5,3.068
Li4MnSi2O7,3.0683
Mn5P3ClO12,3.0688
MgTi3ZnNiO9,3.069
TaCl3O,3.0691
NdGaGe2O7,3.0692
RbNbSiO5,3.0692000000000004
Sr14Nb6O29,3.0694
LuTiClO3,3.0696
Ta5Zn(PO4)9,3.0697
Na3Mg4Ta2P3(SO6)6,3.0699
Nb2Si2SO12,3.0701
YLuO3,3.0704
PbBrCl,3.0714
GdHO2,3.071400000000001
VH12SO11,3.0716
Na5Sc2Ta2Si3(PO8)3,3.0717
Na5Mg3ZrP3(SO8)3,3.0721
Na14Zr3Zn5Si6(SO8)6,3.0723
SnCl2,3.0724
MgCrH10O9,3.0727
Na5LaTa3Si5PO24,3.0730999999999997
PBr3O,3.0735
Si3(WO6)2,3.0736
Tb4Mg(PO4)4,3.0746999999999995
FeH9(NF)3,3.0752
Rb2W3SeO12,3.0758
Rb2ScTlBr6,3.0758
Na10Zr4Ga4Si7S5O48,3.0763
Sr2Ni(SeO3)3,3.0767000000000007
Na2Hf4Zn4SiS11O48,3.0768999999999997
YAl3(Si5N8)3,3.077399999999999
SrGd2O4,3.0774
YHoO3,3.0775
K2CaZrH16(CO3)8,3.0775
HoErO3,3.077500000000001
TaBi(P2O7)2,3.0778
RbHO,3.0781
BaMg30NiO32,3.0784
Te3As2O11,3.0787000000000004
SnH7C3NO5F,3.0788
SrCaNdSbO6,3.0791
Na2SiGe2(PO6)2,3.0792
NaNbGeO5,3.0796
Sr2CrCO3F5,3.0801
Y2(SeO4)3,3.0802
MnCO3,3.0809
Na9Mg2Ta10Si9(PO8)9,3.0812000000000004
Ba3TiZnWO9,3.0817
SrCo3(P2O7)2,3.0817
Nd3Si6N11,3.0824
Tm3SbO7,3.0829
Rb2Na2SiO4,3.083
Nd4S3NCl3,3.0831
Na10La2Ta6Si11SO48,3.0832
Na6TaZn5P3(SO6)6,3.0833000000000004
Nd2Ta2Cl2O7,3.0833000000000004
Na6Y2Ta2Si5SO24,3.0834
Mg6Te5O16,3.0835000000000004
Na4Cr2H6O11,3.0836
Na7TaAl3Si3(PO8)3,3.0836
Pr2W2O9,3.0838
NaTa2In2P5SO24,3.0842
VH16C4(NO4)3,3.0852
TeAs(BrF2)3,3.0852000000000004
Gd4Ga2O9,3.0853
Sr7W4O19,3.0853
ZnH20PtC4(NO3)4,3.0854
Sr3Ta6(Si2O13)2,3.0855
SbN(OF3)2,3.0857
Ni(XeF8)2,3.086
Cs2V2H2O7,3.0863
NaTa3AlSiP5O24,3.0864
Na14Ca4Sc4Si5S7O48,3.0867
ClF5,3.0868
ZrNb2ZnO8,3.087
Mg2Ta2MnO8,3.0874
Na3BiBAsO7,3.0877
ZnH20PdC4(NO3)4,3.0881
K3Mo2BrO7,3.0891
Pb2WO5,3.0894000000000004
Na8Al2Si5Sn2SO24,3.0896
Rb2NdI5,3.0905
Na7Y2Si3Sn2(PO8)3,3.0906
Ca3Ti3Cr2O12,3.0907
Na3ScTa3Si3(PO8)3,3.0909000000000004
SnSb2H24C8(SCl)2,3.0912
CsIO3,3.0912
ThSO6,3.0912000000000006
Nd2Ti4O11,3.0914
Mg2Ta2FeO8,3.0914999999999995
Na5Zr2Si3Sn2(PO8)3,3.0916
Sr(H8O5)2,3.092
Ca5TiSn4(BO3)10,3.092
Na6Ta3Ga5(PO4)12,3.0920000000000005
Na9Ca2Ta10Si9(PO8)9,3.0921
LiPr(MoO4)2,3.0924
Lu2SO2,3.0925
Li2Fe2Si5O13,3.0926
Sr3Zr2O7,3.0926
Na9CaTa5(SiO4)9,3.093
NaCaGa3(SO4)6,3.0931
TbGdO3,3.0933
Na7Ta2In2Si5PO24,3.0939000000000005
LiBi2PO6,3.094
TaCl4F,3.0944000000000003
PrAg(WO4)2,3.0958
Na3Ti2P2O10F,3.0958
TiZnH12(OF)6,3.0958
TaSiH33C11N5Cl,3.0961000000000003
Na5Ga3Sn(PO4)6,3.0965
Na2Hf8Si5S7O48,3.0965
Na3TaInSi2PO12,3.0969
NaTa2Al2P5SO24,3.0970000000000004
NaZr2Al2P3(SO8)3,3.0971
Tm2SO2,3.0973999999999995
Na2SiSnCO7,3.0973999999999995
Na10Hf2Zn6Si3(S3O16)3,3.0974000000000004
Na6Ca3HfSi2(SO6)4,3.0976
Sm3VGeO9,3.098
Lu2CoTe2(SO7)2,3.0980000000000003
LiNd(MoO4)2,3.0984
PH17C4S2(N2O)4,3.0984
K3Ce2(NO3)9,3.0986
Na2Pr4Br9NO,3.0999
ZnCoF4,3.1002
LiMg30WO32,3.1002
RbTm(MoO4)2,3.1009
ZnSiPbO4,3.1014000000000004
SnH4(Cl2O)2,3.1015
Na3H6Rh,3.1017
KPrNiWO6,3.1021
Rb3BiO3,3.1021
MgMn(SiO3)2,3.1024000000000003
Cs3Bi2Cl9,3.1025
SrCaGdSbO6,3.1028
NaMgH3,3.103
Ni3B7ClO13,3.1032
Na3ScBr6,3.1033
YMo2O7F,3.1033
RbEr(MoO4)2,3.1038
CaV(PO3)4,3.103800000000001
Li3Tb(NO3)6,3.104
NaHfSn(PO4)3,3.1044
Pr4Si4N7ClO3,3.1044000000000005
Na2Ta8Si9(SO16)3,3.1049
Na4ZrSi3GeO12,3.1049999999999995
Na10Sc7TaSi6(SO8)6,3.1051
SiPbO3,3.1053
RbBi(MoO4)2,3.1055
Sm2CoTe2(SO7)2,3.1058
Na2HfSiSn(PO6)2,3.1059
Na3SiGe4P5O24,3.1062000000000003
Na5Y3ZrSi3(SO8)3,3.1064
NaMg4V3O12,3.1066000000000003
Na6Ca2Zn2SiS5O24,3.1066000000000003
Na4HfZnSi2SO12,3.1068
Ba3(BO3)2,3.1069
Sr4Al6SeO12,3.1075
Rb3NbH4(C2O5)3,3.1076
Pr(IO3)3,3.1077000000000004
LiZnAsH2O5,3.108
SnH4(NF)2,3.1084
Na2Gd2MgSi4(O6F)2,3.1091
Sn2As2H24C8S2O3,3.1092000000000004
Li3Y(NO3)6,3.1094
LiCaPrTeO6,3.1095
Na3Ta3InSi3(PO8)3,3.1096
Tm6WO12,3.1096000000000004
Na3TaGa3P5SO24,3.1101
VSO4,3.1105
Na8Ca3HfSi3(SO8)3,3.1109
Na3PH22(SO4)3,3.1109
Ni3Se4(ClO5)2,3.1114000000000006
MgTiAs2O7,3.1114999999999995
Rb2NaScBr6,3.1115
Na14Ca4Hf4Si7S5O48,3.1118
TaSi2PH18C6(NCl3)2,3.1119
MgGaBO4,3.112
Rb2NaPrI6,3.112
Rb2ZnI4,3.1121
Nd2WO6,3.1133
Ba4LiTa3O12,3.1133
Ca5Bi6(Cl3O2)4,3.1134999999999997
Sr3LaNb3O12,3.1136000000000004
LiSn(PO3)3,3.1143
RbNbAsClO5,3.1146000000000003
Lu3SbO7,3.1147
Na2Hf6Zn2Si3(S3O16)3,3.1149
Zn4Si2H2O9,3.115
NaCaMn3Si5HO15,3.1151
Na10La7TaSi6(SO8)6,3.1155
K2NaNdI6,3.1158
LaTa7O19,3.1166
NaGaGeO4,3.1167
Pb3IF5,3.1169
LiMo2P3O11,3.1175
CsTb(MoO4)2,3.1179
Rb3ScV2O8,3.118
MgNi2(PO4)2,3.1186
Sc3TaP2(SO6)4,3.1192
Pr4AlSi5(NO)7,3.1192
Na9Ta10Zn2Si9(PO8)9,3.1194999999999995
Na10Y7TaSi6(SO8)6,3.1194999999999995
Y3ErTi4(SiO9)2,3.1195
Na3La3TaP5SO24,3.1205
Si3BiH27(C5Cl)2,3.1206
Li4Al3Ge3IO12,3.1208
Ni3(PO4)2,3.1208
Nd3VGeO9,3.1213
Na2NbAsO6,3.1214
NaNb2H7O9,3.1217
Na3Si2Ge2PO12,3.1217999999999995
Na3TaIn3P5SO24,3.1217999999999995
Na7Si5Ge4PO24,3.1221
SrPS3,3.1224
Rb4(BS)9,3.1228
Ca2ZrTi(SiO5)2,3.1228
NaSbMoO5,3.1229
HoTiClO3,3.1229999999999998
Si10(H3C)19,3.123
LiH6BrO7,3.123
Y6WO12,3.1232
NaTa3GaSiP5O24,3.1235
La3TiGa5O14,3.1238
Nd4Zr3TiO14,3.1241
SrCaCr(PO4)2,3.1243
Na2LiYBr6,3.1247
BaLa2Br8,3.1249
Sm2Ta2Cl2O7,3.1249
Na6La4Sc4Si3(S3O16)3,3.1250000000000004
Mn2PClO4,3.1252000000000004
Pr3VGeO9,3.1255
P3H18RuC6(SO)6,3.1255
RbH3WO7,3.1265
Li7Cr3(SiO6)2,3.127
Ba3V2Ni6(PO6)4,3.1274
Rb2MoSeO6,3.1275
VH4NO3,3.1275000000000004
ZrH32C10IN5,3.1279
LiSi2BiO6,3.1279000000000003
Rb4Mn(MoO4)3,3.1284
TaNbSi2SO12,3.1293
Na2Ta3GaSi2(PO6)4,3.1294
Nd2CoTe2(SO7)2,3.1295
Na2S2O5,3.1295
SnH22(Cl3O5)2,3.1302
Na12Ca4Ta2Si3(PO6)6,3.1304