formula,band_gap
Li4Mn3Sn5O16,0.0048000000000003
K6Na15Tl18H,0.0049000000000001
MgTaTi(PO4)3,0.0049000000000001
Ca3Sn4S11,0.0049999999999998
TbZnCuAs2,0.0049999999999998
Rb(WCl3)3,0.0050000000000003
Al2O3,0.0050999999999996
CoCu(PO4)2,0.0050999999999998
Ho6(Ga3Co)7,0.0051999999999994
AlCu6H12SClO19,0.0051999999999998
LiCo3(SiO4)2,0.0052
Na6Bi2C4SO16,0.0052000000000003
Tl4SnTe3,0.0052000000000003
Ag3P3HO9,0.0053
CeSn3Ru,0.0053
In2Hg5Te8,0.0053
B4Pb6O13,0.0054000000000002
MnTlCuSe2,0.0054000000000007
LiNi4(PO4)3,0.0055999999999998
BaVCu4P4O17,0.0055999999999998
LiMn2(PO5)2,0.0055999999999998
Dy3Ga2,0.0056999999999995
Sr5U5O18,0.0057
Te2MoCl12,0.0057
Li4Mn3Ni3(SnO8)2,0.0057
KTi4Cl11,0.0057
Mn3VSn2(PO4)6,0.0057999999999998
Rb2Li(TcO4)2,0.0058
V5Bi17Pb5O43,0.0058000000000002
Eu3(AlAs2)2,0.0059000000000004
La5Al2Ru3,0.0059000000000004
Sn2PbSe3,0.0060000000000002
Y6Ta4Al43,0.0060000000000002
TmH3,0.0060999999999999
Li2Fe2P2O9F,0.0060999999999999
Eu2Be2SiO7,0.0060999999999999
Ba17SrSm12Cl68,0.0061999999999997
Zn2PO5,0.0061999999999999
S2NO9,0.0061999999999999
LiNiPHO5,0.0061999999999999
BaMn9V6O26,0.0062000000000002
Ti5Nb(PO4)6,0.0062999999999995
CuH9C4S4N,0.0063
Fe15(Ge2O9)4,0.0063999999999997
Fe3Co2P6WO24,0.0064000000000001
HfMg30CoO32,0.006400000000001
LiHoSn,0.0064999999999999
U6Rh2S15,0.0065999999999997
Ca10Pr4Cu24O41,0.0065999999999997
Li2FeCl4,0.0066999999999999
Li2Ti3P9O28,0.0066999999999999
CsScAgF6,0.0066999999999999
Ti3CrCo2(PO4)6,0.0066999999999999
Sr2Y2Mn2O7,0.0067000000000003
Dy2Te,0.0068000000000001
Rb7EuFe6(P4O17)2,0.0068999999999999
CsSc3(CuTe3)2,0.0069999999999996
V2Fe3Co(PO4)6,0.0069999999999996
TiFe2Ni3(PO4)6,0.0070999999999998
Ba3Na3(CO3)5,0.0070999999999999
SrAsO4,0.0071
V3P6H14(NO8)3,0.0071000000000001
LiTiFe5O8,0.0071000000000003
YSc3N4,0.0071000000000003
Ho8Ga3Co,0.0071999999999996
Mg2Cu2H2CO9,0.0071999999999999
Ca3Ti2(GeO4)3,0.0072
Ba2NaCe2Ti2FeSi8HO27,0.0072
CuH2SO5,0.0072
V3P4WO20,0.0072999999999998
MgCu2(SO5)2,0.0073
Re4Si7,0.0073000000000007
NaCe3GeS7,0.0074000000000005
KU6F25,0.0074999999999998
Li8Nb(FeO4)3,0.0075999999999998
Li5V3(FeO5)2,0.0076999999999998
NaZn2Se2O7,0.0076999999999999
NaCoPCO7,0.0078
Ce2(Ga3Ir)3,0.0078000000000004
Ba2YCr3O7,0.0078000000000004
Te6Mo3WSe2,0.0079000000000002
NaLa2Ti2MnO9,0.0079000000000002
LiCuP4(RuO7)2,0.0079000000000002
BaCu2P2H2O9,0.008
Mg3FeN3,0.008
Ce4CI6N,0.0080999999999997
MgMn3VCr2(PO4)6,0.0081999999999999
V2Cu3H24(OF)12,0.0081999999999999
Li2FeCo9O20,0.0081999999999999
Cu3PO7,0.0081999999999999
FeH16C4(NCl2)2,0.0082
K9(FeO4)2,0.0082000000000002
Sr2Mn3(BO5)2,0.0082999999999999
Na4Mn2C4SO16,0.0082999999999999
Sr3Ca5Fe4(CoO5)4,0.0083000000000001
Na3Mg4(MoO4)6,0.0084
Li14Be6(BO3)9,0.0084
Na5V2P(CO4)4,0.0084999999999999
CdGeAs2,0.0085000000000001
Li21Mo11O32,0.0085000000000006
Ge3P6H42N12O25,0.0085999999999999
Mn8Si6O25,0.0086999999999999
Li5Mn4(P2O7)4,0.0086999999999999
Lu6Al43V4,0.0087999999999999
K2Be3Co2F12,0.0088
MnAg2GeSe4,0.0088000000000001
MgCu6(OF5)2,0.0088999999999999
CePt2,0.0089000000000005
LaB5BrO11,0.0090999999999999
Ti2Be3(SiO4)3,0.0091000000000001
BaTl2O4,0.0091999999999998
MgAl2Ga2Cu4(AsO5)4,0.0091999999999998
Li9V4(PO4)6,0.0091999999999998
Li4Ni3(SnO5)2,0.0092000000000003
CuP6Pd11O34,0.0092999999999996
Ce10Se14O,0.0092999999999996
CaFe2CoO7,0.0093
SmP5,0.0093999999999994
CuAg5As3O11,0.0093999999999998
Li17La12Zr8O48,0.0093999999999998
TiMn3(PO4)4,0.0093999999999998
Cs3P(SeO6)2,0.0094
Ba19Na29Li13,0.0094
Mn(CO3)2,0.0094
Li6Ti3V(PO4)6,0.0094000000000002
Ca14MnP11,0.0095
Sc57Ru13,0.0095
Fe23O32,0.0095999999999998
CaCoF5,0.0096
BaNd4(CoO3)5,0.0096000000000002
Cu4BiSe4I,0.0096999999999995
BaEuDySbO6,0.0096999999999995
Ag6Ge2O7,0.0097
NaP4(RuO7)2,0.0097
CdIn4As4S,0.0099
Cr3Ni(PO4)4,0.0099
Zn3Si3(NiO6)2,0.0099999999999997
Na4Al3Ge3NO15,0.01
Ti2P3H7NO13,0.0100999999999995
Li13Mn2O9,0.0101999999999999
Tb3Co29(Si2B5)2,0.0102999999999999
Er8Ga3Co,0.0102999999999999
Dy5(CoSn3)6,0.0103999999999997
Mn5(AsO6)2,0.0104000000000001
Na4La31(CoI12)5,0.0104999999999995
CsCr5Se8,0.0104999999999999
Th3Se3O16,0.0105
Bi2N2O9,0.0106
V3Fe2Te(PO4)6,0.0106000000000001
Li4V3Ni2Sb3O16,0.0106000000000001
Mn4Nb7Ge8,0.0106999999999999
Y8In3Co,0.0107999999999996
Y6Zr22O53,0.0107999999999996
Eu2CoTe2(SO7)2,0.0108999999999999
CaH8(BrO6)2,0.0108999999999999
K8MgCo2(Mo4O15)2,0.0108999999999999
CsU6F25,0.0110000000000001
Sr5(CoO3)4,0.0110000000000001
MgCuW2O7,0.0110000000000001
V3(Bi4O11)2,0.0110999999999998
CeCl3,0.0110999999999998
Mn3NiSn2(PO4)6,0.0110999999999998
Mg2AlV3S8,0.0110999999999998
P3CN2Cl13,0.0110999999999999
Zn6Ru,0.0111000000000003
Sm3Co29(Si2B5)2,0.0111000000000007
CeIn3(CuSe2)4,0.0111999999999996
Sr(H2O3)2,0.0111999999999999
Gd2CuTe2(SO7)2,0.0112
Ag6HgGeSe6,0.0112
Tb6O11,0.0112
Fe2Cu3(Sn3Se8)2,0.0112000000000005
K8MgMn4O16,0.0112999999999999
NaZn4H6SClO16,0.0113999999999999
NaPr2Ti2MnO9,0.0114
TiMn9O20,0.0114
Rb2EuCl5,0.0114
K4Li5Ti8(PO5)8,0.0114
Li2V12O29,0.0114999999999998
Li19La12Zr8O48,0.0114999999999998
BaAl2(PO5)2,0.0115000000000002
Re3(PbSe3)2,0.0115000000000007
Ca6Al6Si3(HO12)2,0.0115999999999996
LiMn2(P2O7)2,0.0116
Fe2Si2SbO9,0.0116
Sm2SnS5,0.0116000000000004
Cu5Sn(BO5)2,0.0116000000000004
Er5(ReO6)2,0.0117000000000002
Sc36In5Co13,0.0118999999999998
Li2Co4OF8,0.0119
Ba2B5O11,0.0119
Mg2V3GaS8,0.0119000000000006
Cs4U(Ge2O5)4,0.0121999999999999
Pr7C3I10,0.0121999999999999
Tb4MgNi,0.0121999999999999
Lu3Co29(Si2B5)2,0.0121999999999999
Ba2Ca(PO4)4,0.0124
VGeO3,0.0124000000000004
Ag3Sb4F24,0.0124999999999999
Dy4MgNi,0.0126000000000003
Li7Mn4(P2O7)4,0.0126999999999997
Li3V2BP4H2O17,0.0127999999999994
ZnCu4Sn2HgS8,0.0127999999999994
Ca2HgGe,0.0127999999999999
P2PbO8,0.0127999999999999
Ce2(MoO4)3,0.0129000000000001
Na2(CoO2)3,0.0129000000000001
RbZrN3O11,0.0130000000000001
MgTiIr2,0.0130999999999996
Al3P2(H4O7)2,0.0131000000000001
Ta6Bi2O19,0.0131999999999998
Ho6Ta4Al43,0.0132000000000003
Mg6SiSn2,0.0133
Pr4CoS7,0.0133999999999998
TbN,0.0133999999999998
Y4CdNi,0.0133999999999998
HgClO4,0.0134999999999998
Li6Nb3Fe3O16,0.0134999999999998
K5NaFe2(CO2)12,0.0135
Mg(CuS)2,0.0136000000000002
HfMg30NiO32,0.0136000000000002
Gd4Ge3O13,0.0137
V3(FeO4)2,0.0137
Ti2MnIn,0.0137
KCeH2S2O9,0.0137999999999998
Cs11Fe10S16O,0.0139
La(IO3)4,0.0139
LiSO4,0.0141
Bi6Rh12O29,0.0141
Te4MoW3Se4,0.0141
Ce4Al2O9,0.0141999999999997
Cu2CO5,0.0141999999999999
Sr9U9O34,0.0142000000000006
Cd5TeS4,0.0142999999999999
Ca3Si3(NiO6)2,0.0142999999999999
Ag3(Bi2Br3)7,0.0142999999999999
Mg30VBiO32,0.0143999999999984
Mg149Ni,0.0143999999999997
CeBiRh,0.0144000000000001
Lu4CdPt,0.0145000000000004
Y4MgPt,0.0146000000000001
ZnCu(PO3)4,0.0146000000000001
Y11Sn10,0.0146999999999994
Li9Cr4C8(SO16)2,0.0146999999999999
Li4Ti2Mn3Ni3O16,0.0146999999999999
Tm6Al43V4,0.0147000000000003
LiCo(PO3)5,0.0149
EuZr3F15,0.0149000000000001
MgMn2Fe2(PO4)4,0.0149000000000003
TlCu2P2O7,0.0149999999999996
Ho11Sn10,0.0149999999999996
KMg149,0.0150000000000001
Li7Fe8(BO3)8,0.0151999999999996
RbCr5Se8,0.0152000000000001
Li4Ti3Fe3(NiO8)2,0.0152999999999998
GeSe,0.0153000000000007
Sr8(TiS3)7,0.0153999999999996
Li4Mn5NiO12,0.0154
Mg2Al3VS8,0.0154999999999994
Mn4Nb2O9,0.0154999999999998
ScSbPd,0.0155000000000002
CsMnH24(SO10)2,0.0156
Ho4CdNi,0.0156
Mg3Al7(Si2O11)2,0.0156
Cu6Pb2Se6N2O27,0.0156
LuH3,0.0156
Ag2SnHgS4,0.0156999999999998
ErGeRh2,0.0156999999999998
SrV6O15,0.0158
MgCo2(BiO4)2,0.0158
Tm13Zn58,0.0158
Se2S2O7,0.0158
Li9V12Cr7O48,0.0158
Lu4MgNi,0.0158
Er4CdPt,0.0158
NiRhF6,0.0158999999999999
Cs3(Na13In24)2,0.016
K2U(Si2O5)3,0.016
Pr3MoO7,0.016
KZr6CI14,0.016
Cu2SiHgSe4,0.0161000000000002
BaV2(NiO4)2,0.0161999999999999
Lu20Os5I24,0.0162999999999997
CuBiO4,0.0163000000000002
Sm3Ga2,0.0163000000000002
Li7MoN4,0.0163999999999999
Li3Fe8(BO3)8,0.0165999999999999
NaFe2P2HO8,0.0165999999999999
FeB12(HO6)4,0.0165999999999999
Li8(NiO2)5,0.0166999999999997
Cs(SeO3)2,0.0166999999999999
Sc3B2Ir5,0.0167000000000001
Tb3Ga2,0.0167999999999999
CaLa3(CoO4)2,0.0167999999999999
KCuPH2O5,0.0168999999999999
Dy6N8O33,0.0169000000000001
Ho13(Mg2Zn27)2,0.0169999999999999
Ba7Hg31,0.0169999999999999
Co21Cu3O32,0.0170000000000003
CsV(PO3)4,0.0170000000000003
Na8FeO6,0.0171
Mg149Pt,0.0171000000000001
Nb4P2AuS20,0.0171000000000001
Ca2Mg5(SiO3)8,0.0173
Li2Fe2Si2O9,0.0173999999999998
Ti3TlSi2P6O25,0.0175999999999998
FeSbAs,0.0175999999999998
Mg2(SiO3)3,0.0176
Er6CoBr10,0.0176000000000002
CaMn25FeSi4SbO44,0.0177
HoAsS,0.0177000000000004
TiTlCuTe3,0.0178999999999991
CaIn2(PO4)3,0.0179
Rb2Ti2(PO4)3,0.0179
Ba6Fe14Cu11S27,0.0179999999999997
Ba2MgCo2CuF14,0.018
Cr2(Se2O5)3,0.018
SrAs,0.0181
SrCdO2,0.0181999999999999
CaTiO2,0.0182000000000002
KVOF3,0.0182999999999999
Mg2Cr3WS8,0.0182999999999999
HoPPd,0.0182999999999999
CsCeCdSe3,0.0183999999999997
Nd3GaFeS7,0.0183999999999997
MgCuP,0.0184999999999995
EuMg149,0.0184999999999999
KNaEuTaO5,0.0184999999999999
ZnCoBiO5,0.0184999999999999
LaFe12O19,0.0186000000000001
RbLi7Ge8,0.0186999999999999
In4Cu3AgTe8,0.0186999999999999
MgTi2Tl2(PS5)2,0.0187000000000008
Mo15Pb2Se19,0.0187999999999997
MgTl4V4(TeO5)4,0.0187999999999997
CsMnMo(OF)3,0.0187999999999999
Bi5BO10,0.0189000000000003
Al5(CoO4)3,0.0190000000000001
Li4CuNi3O8,0.0190000000000001
TiV3Sb2(PO4)6,0.0190000000000001
V5BiO10,0.0191999999999996
K2Cr2AsO10,0.0192000000000001
SrSmEuSbO6,0.0192999999999994
Zn89(Cr2Au5)2,0.0192999999999998
V2Cu(PO4)3,0.0192999999999998
Cu3Mo8Br2O23,0.0192999999999998
Li15(FeO6)2,0.0192999999999999
MgMn6Nb4O18,0.0193000000000003
Pb4C(Cl3O2)2,0.0193000000000003
V3BO5,0.0194
AlBiSe4,0.0194
In2CuAgTe4,0.0194999999999998
Li2Cr(CO3)3,0.0195
Li8Mn7Co(PO4)12,0.0196
Ca8Be5Al3(Si9O28)2,0.0196
Dy11(In3Si2)2,0.0196000000000005
Cs2Ce10Os2I17,0.0196000000000005
Ce3SiAgS7,0.0196999999999993
Rb2Cu4H5(SO5)4,0.0197
Tm6Al43W4,0.0197000000000002
AlBi3F15,0.0197999999999995
U2MoO8,0.0198999999999998
Na2LaCeTi4O12,0.0198999999999998
Mn5V4O12,0.0199000000000002
NaFe9Si6B3H3O31,0.02
CsAg5Te3,0.0200999999999997
MgCo5BiO12,0.0201999999999999
LiMn3(P3O10)2,0.0202
Nd20Mn20O59,0.0202999999999997
Na14Ca6Si5Ge2S7O48,0.0203999999999999
Sr5(RhN3)2,0.0203999999999999
Li3Fe4(BO3)4,0.0205000000000001
Li2V2Si4O11,0.0205000000000001
Fe3BO5,0.0205000000000001
Ce2(Al3Ir)3,0.0205000000000001
Ag5IO6,0.0205000000000001
Mg5Co19O32,0.0205999999999999
Mg3V3(AsO4)4,0.0205999999999999
CaAgAs,0.0206999999999997
NaTb(Pd3O4)2,0.0206999999999997
Li6V5SbO12,0.0207999999999994
Er4Zn5Ge6,0.0208000000000003
Mn3Cr2Ni(PO4)6,0.0209000000000001
Rb5(Pb3Cl8)2,0.0209000000000001
Mg9(FeN4)2,0.0209000000000001
HfFe2Sn,0.020999999999999
Sr9(NiO3)7,0.0209999999999999
Ba9Ge23O57,0.0209999999999999
Mn9(NbGe4)2,0.0211000000000005
Ta2Ni3Te5,0.0211999999999994
Li8V3P8O29,0.0211999999999998
Na2Ti(SiO4)2,0.0211999999999999
Na3Mg2V3O12,0.0211999999999999
Li5Fe8(BO3)8,0.0212999999999996
Mn5SbO12,0.0213
FeCu2SiS4,0.0213
Rb2LiPr2(WO4)4,0.0213
Sr3(RhN2)2,0.0213
CrCuSnSe4,0.0213
Li4Cr5FeO12,0.0213999999999998
Ba3V2H12(C5O14)2,0.0213999999999999
Fe5Te6(ClO9)2,0.0214999999999996
Ba3EuRu2O9,0.0215
NdEuHfCrO6,0.0215000000000005
Li5Cu3(SbO5)2,0.0216000000000002
LiTiMnO4,0.0216000000000002
Sb2TeRu,0.0217
Ce(Al10V)2,0.0217999999999989
Mn2Ni3P6WO24,0.0218
RbMg149,0.0218000000000002
PrEuZrCrO6,0.0218999999999995
Na2Mg5Mn11Si12(AsO25)2,0.0219
Sb2XeF15,0.0219
Co2TeSO8,0.0219999999999997
Sm11(In3Ge2)2,0.0221
Ti3Co2Ni(PO4)6,0.0221
LiLa4CuO8,0.0221999999999997
CoH8(SO6)2,0.0221999999999999
Er4MgNi,0.0222999999999999
Cs3Cu3Cl8O,0.0222999999999999
Sc(AlC)3,0.0223000000000004
BaReH7,0.0224000000000001
In4As3P,0.0224999999999999
Ni2P5O16,0.0225
CsCeSiS4,0.0225000000000008
Y6Nb4Al43,0.0225999999999997
Cr3P6WO24,0.0225999999999999
Na3CoO3,0.0227000000000001
Li3B8O15,0.0227999999999999
Sr19Li44,0.0227999999999999
TiV3Cu2(PO4)6,0.0228000000000001
MnInCuTe3,0.0228999999999999
MgFe6(O3F)3,0.0228999999999999
H23RuS2N5ClO12,0.0229
FeTe2ClO5,0.0229999999999996
Tb6Nb4Al43,0.0231000000000003
Na20Zn8Sn11,0.0231999999999996
V16CrO41,0.0232
Sr2CuF6,0.0232
LiY4(AgO3)4,0.0232999999999998
BaMn2FeSi2O9,0.0232999999999998
SnCl8O25,0.0233999999999998
Li4V3Cu3(TeO8)2,0.0234000000000005
Ag3AuSe2,0.0234999999999998
Mn3VSb2(PO4)6,0.0234999999999998
Fe7(PO5)4,0.0236
K2GaAgBr6,0.0236
La3MoO7,0.0236
Na7Mn4Fe8(PO4)12,0.0236
Na3Ce5Cl18,0.0236999999999998
Ba38Na58Li26N,0.0236999999999999
Eu(GaAs)2,0.0238999999999998
KAl2NiP3O14,0.0239999999999999
ZnCrO3,0.0242
Pr9Be4O20,0.0242999999999999
Tb6Ta4Al43,0.0243999999999999
Li8Fe7(PO4)8,0.0243999999999999
Zn9(As3O14)2,0.0244999999999999
Sr5(FeN2)2,0.0245000000000001
Fe2BO4,0.0246999999999997
Rb2LiNd2(WO4)4,0.0247000000000001
Fe2Si2BiO9,0.0247999999999999
MoPCl9,0.0249000000000001
Li4Ni7O12,0.0249000000000001
K3Bi,0.0249999999999999
U3H2OF12,0.0250000000000003
V20Ga(GeS10)4,0.0250000000000003
Nd12Co6Pb,0.0251000000000001
YAsS,0.0251000000000001
Li4Cu3F12,0.0251000000000001
SrBi3Br3O4,0.0251000000000001
LiCoPO4F,0.0252
MgV3CoSn2(PO4)6,0.0253999999999998
TiMn3Sb2(PO4)6,0.0253999999999998
Sc57Ir13,0.0255
CeAsRh,0.0255999999999998
SmAsS,0.0255999999999998
La12C6I17,0.0255999999999998
Ti3CrSn2(PO4)6,0.0256999999999996
Li6Ti(BO3)3,0.0257
CaCo2(CuO4)2,0.0257
Li4Ti3(NiO4)3,0.0257
Dy4CdPt,0.0257999999999998
K6Tl17,0.0257999999999998
Li2V4CuNiO12,0.0258000000000002
Lu11(Ni10C)6,0.0259
MgV6O15,0.0260000000000002
Er(AlC)3,0.0260999999999995
CaMnNiP2O9,0.0261999999999997
Eu2Ti12(CuO4)9,0.0262000000000002
V2Cu3(Bi2O7)2,0.0262999999999999
Li3Co2(PO4)3,0.0262999999999999
Li3TiSiO5,0.0262999999999999
Zn3Co2O7,0.0262999999999999
Ca2Fe2Si5HO15,0.0263999999999997
Na2AlCoF7,0.0263999999999999
V3(SbCl12)2,0.0264
SnP7Au3,0.0264999999999995
Ag9P14(OF)28,0.0264999999999999
Lu3Ga2,0.0264999999999999
Mg3(Al9W)2,0.0265000000000004
FeH12(SO7)2,0.0266000000000001
Eu3(AlP2)2,0.0266000000000001
IrClOF6,0.0267000000000003
CaCu3(P2O7)2,0.0267999999999997
As3Ir,0.0267999999999997
BiAs2O7,0.0267999999999999
ZnCu2SnSeS3,0.0268999999999994
MgMnNiP2O9,0.0268999999999999
MnZn4(IO3)10,0.0270000000000001
CoBi6(SO8)2,0.0270000000000001
Dy7C2I12O,0.0270999999999999
TlBiPbS3,0.0271999999999996
V(CoO2)2,0.0272000000000001
Li2GaSb,0.0272000000000005
Li4Co3Sn5O16,0.0273000000000003
V6F13,0.0274
BaGd2PdO5,0.0275000000000003
Ho3Ga2,0.0276
Ba(GaSb)2,0.0278
Zr2FeS4,0.0278
LiLuSn,0.0279999999999995
Na6Fe2B4PO16,0.0279999999999999
ZnSb,0.0282
Ti3V2Sb(PO4)6,0.0284000000000004
NaCa3C2O7F3,0.0284999999999999
TbAsS,0.0285000000000001
Ti3Pb5F19,0.0285999999999999
Ba(GeAs)2,0.0285999999999999
KZn2(PO4)2,0.0285999999999999
Ho13Zn58,0.0285999999999999
Ba8Si43Ni3,0.0286999999999997
Ba2Pb,0.0287999999999999
Mn4P7O24,0.0288
DyAsS,0.0288000000000003
Li2BrO,0.0289
Ti3Fe2Sb(PO4)6,0.0289000000000001
K2LiNb2P2(CO7)2,0.0291000000000001
Cr2Fe3Sn(PO4)6,0.0291999999999998
Na2BiBPO7,0.0292
Ga41N11O45,0.0292000000000003
CeBO3,0.0293000000000001
Sr4Fe3MoO12,0.0293999999999998
KCeTi2O6,0.0293999999999998
MgMn3CrO8,0.0296000000000002
Mg149Cr,0.0297999999999998
Ti2ZnSnO6,0.0298999999999995
Ho6Al43Mo4,0.0299999999999993
Co5(PO6)2,0.0300000000000002
La11V4O26,0.0301
Rb2Y2(PO4)3,0.0303
Sm12Co6Sn,0.0303000000000004
BaCr4S7,0.0303000000000004
EuCuSeF,0.0304999999999999
K8La(PS4)4,0.0305000000000001
Nb3Br8,0.0306999999999999
BaCu4S3,0.0307999999999992
Li8Fe7Te(PO4)12,0.0308999999999999
Ga3Te9Pd32,0.0308999999999999
NdAsSe,0.0308999999999999
RePCl8O,0.031
Li3(Nb2Cl5)8,0.0310000000000001
KCu24Ag9H48Pb26(Cl31O24)2,0.0312000000000001
K11(In2Bi3)3,0.0313000000000003
SrNp(PO4)2,0.0314999999999994
Ba2AlTlCo2O7,0.0317000000000002
Sb4Xe2F19,0.0317000000000002
Mg3Bi2O7,0.0317999999999996
Zn(InSe2)2,0.0318
Mg2Cr3O8,0.0319000000000002
Ni8P3,0.032
Hf2CuSb3,0.032
MgCu4(SO5)2,0.032
CrSiH8(O2F3)2,0.032
Na2U2MnH8(C3O7)4,0.0320999999999997
MgCo5(P2O7)4,0.0321999999999999
Tb6Al43Mo4,0.0323000000000002
K15Os7N19,0.0323999999999999
Li3Co2SnO6,0.0323999999999999
RbGdTe4,0.0325999999999995
Mn7Si3O14,0.0325999999999999
Li2FeCO5,0.0326999999999999
Os(SCl6)2,0.0326999999999999
Dy12C6I17,0.0327000000000001
Li2MgCr3(SO4)6,0.0327999999999999
La3C2I3,0.0328999999999997
TaNb2Zn2O8,0.0328999999999997
SrMgSi,0.0329999999999999
ZnCu3(SnO3)4,0.0330000000000003
Mg149Zr,0.0331000000000001
Mg10(SiO6)3,0.0331000000000001
Eu3Fe5O12,0.0331999999999998
Ce3SiCl5O4,0.0331999999999998
RbU2F9,0.0331999999999998
Li2GeSb2Te5,0.0332999999999996
Li7OsN4,0.0333999999999998
AgPbO2,0.0334000000000003
Dy6Nb4Al43,0.0335
BaEuS2,0.0335
Na2MgZn5(AsO4)6,0.0335999999999999
Co(H3Br)2,0.0338
HfSnPd,0.0338000000000002
RbCeS2,0.0339
USnI6,0.0341
BaNpPH2O7,0.0341000000000004
Li15Bi4(PdO10)2,0.0342
Ti3Mn2Sb(PO4)6,0.0343
V3(WO6)2,0.0343
Mn2Co3Te3O16,0.0343999999999997
MnGa(CuSe2)2,0.0344000000000002
NaCeTiNbO6F,0.0346000000000001
Cs2Mn3S4,0.0346000000000001
Er6Al3Si,0.0346999999999999
U3Ni3Bi4,0.0349000000000003
Sr2AlFeCu2O7,0.0349000000000003
NdIn2Pd,0.0349000000000003
BaAg2GeSe4,0.0350000000000001
Ba2EuV3O11,0.0350999999999999
Cr3SbO8,0.0352000000000001
Ca(GaAs)2,0.0353000000000003
Nd4CdPt,0.0353000000000003
CsMn2N3,0.0357
NpNO5,0.0357999999999999
TlFeBr4,0.0359
CsVH12(C2O7)2,0.0359
CdCuP2O7,0.0359000000000002
Mg30TiCO32,0.0359999999999995
PrSe4O11,0.036
Ni(Mo3Se4)2,0.0361000000000002
ZnCdO2,0.0361999999999999
Cu2TeO6,0.0363000000000002
DyZnCuAs2,0.0363999999999995
Ho4MgNi,0.0363999999999999
Sb3(PO4)4,0.0363999999999999
Li3V2F12,0.0363999999999999
Np2SO9,0.0364999999999997
Ba15Fe7S25,0.0364999999999997
Na4HgP2,0.0364999999999999
U2WO8,0.0365000000000002
RbSeO3,0.0368
KPuP2S7,0.0369000000000001
K2MgTi2(PS5)2,0.0369000000000001
La3C2Br3,0.0369000000000001
Rb2TbF6,0.0369999999999999
KMn(SeO4)2,0.0370999999999999
Zn2AgSbO6,0.0371999999999999
CaBiF6,0.0372000000000001
Zr19O40,0.0373000000000001
Mn3F10,0.0373000000000001
BaCaGaBiO6,0.0373000000000001
NaGdTiO4,0.0373000000000001
Ba2SnHg,0.0374000000000003
V30Cu34O95,0.0376000000000003
Sr5Pt4,0.0376000000000003
NaNpCO5,0.0376000000000003
CrFe3Sn2(PO4)6,0.0377999999999998
Cr19O48,0.0377999999999999
SrEu(WO3)2,0.0378000000000007
Ba8Ta2Ru3(BrO9)2,0.0379999999999998
BaNd2Cu(MoO4)4,0.0379999999999998
Li13Co15O28,0.0379999999999998
Li2V18O39,0.0380000000000002
SrCa4(FeO2)5,0.0381
Ba2ZnCuAg2F14,0.0381
Na6Nb8(PO7)5,0.0381999999999997
Th3Sb4,0.0381999999999997
K2U(PSe3)3,0.0382000000000002
Dy6Al43Mo4,0.0383000000000004
Mg2MnN3,0.0383000000000004
Ba9Fe4S15,0.0384999999999999
Ba5Eu5(Fe5O13)2,0.0384999999999999
Sm4MgPt,0.0384999999999999
SrCo(PO4)2,0.0386
KCeSiS4,0.0386000000000006
KNb3VCl11,0.0388999999999999
K2CeAg3Te4,0.0388999999999999
V3Cu2P6WO24,0.0388999999999999
La2CoNiO6,0.0390000000000005
SrCaMnRuO6,0.0390999999999999
K6V6P6O31,0.0392000000000001
CeAsO4,0.0392000000000001
Sm2USe5,0.0392999999999998
Li2Ti2(PO4)3,0.0393000000000003
NdAs2,0.0394000000000005
Cr2P4H3O16,0.0395
Na4Ce2(Si4O11)3,0.0397
GaCuSe2,0.0398
Li4Ti3Co3(WO8)2,0.0398000000000005
LiVS3,0.0398999999999998
Li4Mn2Cr3Sn3O16,0.0398999999999998
KCoCu3Se4,0.0399999999999995
La3AlCrS7,0.0401000000000006
Tl2(CdSb)3,0.0401999999999995
CaFeO2,0.0402000000000004
V5Sn(PO4)6,0.0402999999999997
Sr2GaGeN,0.0402999999999997
Mo(PO3)5,0.0404
Ti3Mn2Cr(PO4)6,0.0404000000000004
Sr2Ca6FeCo7O20,0.0405000000000002
MgCo(SiO3)2,0.0406999999999992
V2P3O11,0.0407000000000001
Na5MgReO6,0.0407999999999999
Cu2BH5O6,0.0409000000000001
TiMnO4,0.0413000000000001
Ca3Cu6(PO4)8,0.0413999999999999
KAlSi2,0.0414000000000003
BaAgSb,0.0415
Cu3SeO8,0.0415999999999999
Al2Zn2S5,0.0416999999999996
Na21In5O15,0.0418
Li2FeP4O13,0.0418
Cu3SO8,0.0418999999999999
SnTe,0.0419
NaDy(Pd3O4)2,0.0419999999999998
Mn3NiO4,0.0419999999999998
CdGa4As4Se,0.0421999999999997
CsUTe6,0.0423
VSn(PO4)2,0.0423
Mg149H,0.0423
Li5Ni5O9F,0.0423
Mn(InTe2)2,0.0424999999999999
K2SrCu(NO2)6,0.0424999999999999
AlIn3(CuSe2)4,0.0425000000000004
TiMn3Ni2(PO4)6,0.0425999999999997
H5(C2N3)6,0.0426999999999999
Sr7RuN6,0.0427000000000008
Ca16Mn14Al2O41,0.0428000000000001
Ca3Zn2(CuP2)2,0.0428999999999994
Ba3Fe8Sn3O20,0.0429000000000003
Li4Nb5Cr3O16,0.0429000000000003
NaZrNb(PO4)3,0.0429000000000003
CdNi(PO3)4,0.0429999999999999
Mg2VIrO6,0.0430000000000001
NaSi68,0.0430999999999999
Co(NO3)4,0.0430999999999999
LiTl6Si2O7,0.0430999999999999
Ga(W3O10)4,0.0430999999999999
CdNO4,0.0432
Ni3P3O11,0.0432999999999998
MnZnF5,0.0433000000000001