Lp_norm_p2: -0.0000
Lp_norm_p3: -0.0032
Lp_norm_p5: -0.0009
Lp_norm_p7: -0.0026
atomic_number_fwa: -0.0028
atomic_number_std: -0.0018
atomic_number_min: -0.0002
atomic_number_max: -0.0001
atomic_number_range: -0.0011
row_fwa: -0.0015
row_std: -0.0014
row_min: 0.0001
row_max: -0.0005
row_range: -0.0012
column_fwa: -0.0017
column_std: -0.0023
column_min: -0.0005
column_max: 0.0000
column_range: -0.0009
d_valence_electrons_fwa: -0.0015
d_valence_electrons_fwd: -0.0036
d_valence_electrons_min: 0.0000
d_valence_electrons_max: -0.0004
d_valence_electrons_range: -0.0007
d_unfilled_states_fwa: 0.0008
d_unfilled_states_fwd: 0.0052
d_unfilled_states_min: 0.0000
d_unfilled_states_max: -0.0013
d_unfilled_states_range: -0.0006
s_unfilled_states_fwa: 0.0001
s_unfilled_states_fwd: 0.0004
s_unfilled_states_min: 0.0000
s_unfilled_states_max: 0.0036
s_unfilled_states_range: 0.0015
p_unfilled_states_fwa: -0.0024
p_unfilled_states_fwd: -0.0009
p_unfilled_states_min: -0.0001
p_unfilled_states_max: -0.0021
p_unfilled_states_range: -0.0005
d_unfilled_states_fwa: 0.0013
d_unfilled_states_fwd: 0.0019
d_unfilled_states_min: 0.0000
d_unfilled_states_max: 0.0017
d_unfilled_states_range: -0.0007
f_unfilled_states_fwa: -0.0024
f_unfilled_states_fwd: -0.0014
f_unfilled_states_min: 0.0000
f_unfilled_states_max: -0.0021
f_unfilled_states_range: -0.0003
s_valence_electrons_fwa: -0.0014
s_valence_electrons_fwd: -0.0012
s_valence_electrons_min: 0.0000
s_valence_electrons_max: -0.0007
s_valence_electrons_range: -0.0005
p_valence_electrons_fwa: -0.0017
p_valence_electrons_fwd: -0.0030
p_valence_electrons_min: 0.0000
p_valence_electrons_max: -0.0003
p_valence_electrons_range: -0.0012
d_valence_electrons_fwa: -0.0028
d_valence_electrons_fwd: -0.0029
d_valence_electrons_min: 0.0000
d_valence_electrons_max: -0.0009
d_valence_electrons_range: -0.0005
f_valence_electrons_fwa: -0.0020
f_valence_electrons_fwd: -0.0040
f_valence_electrons_min: 0.0000
f_valence_electrons_max: -0.0012
f_valence_electrons_range: 0.0008
atomic_weight_fwa: -0.0015
atomic_weight_fwd: -0.0020
atomic_weight_min: 0.0002
atomic_weight_max: -0.0014
atomic_weight_range: -0.0011
covalent_radius_fwa: -0.0007
covalent_radius_fwd: -0.0017
covalent_radius_min: -0.0000
covalent_radius_max: -0.0053
covalent_radius_range: -0.0062
electronegativity_fwa: -0.0002
electronegativity_fwd: -0.0009
electronegativity_min: -0.0042
electronegativity_max: 0.0000
electronegativity_range: -0.0041
melting_point_fwa: 0.0158
melting_point_fwd: 0.0021
melting_point_min: -0.0001
melting_point_max: -0.0001
melting_point_range: -0.0004
molar_volume_fwa: -0.0015
molar_volume_fwd: -0.0016
molar_volume_min: -0.0010
molar_volume_max: -0.0019
molar_volume_range: -0.0015
mendeleev_number_fwa: -0.0013
mendeleev_number_fwd: -0.0007
mendeleev_number_min: 0.0007
mendeleev_number_max: 0.0000
mendeleev_number_range: 0.0002