Lp_norm_p2: -0.0002
Lp_norm_p3: -0.0004
Lp_norm_p5: -0.0002
Lp_norm_p7: 0.0011
atomic_number_fwa: 0.0041
atomic_number_std: 0.4198
atomic_number_min: 0.0502
atomic_number_max: 2.3808
atomic_number_range: 2.7639
row_fwa: 0.0023
row_std: 0.0041
row_min: 0.0006
row_max: -0.0061
row_range: 0.0280
column_fwa: 0.0321
column_std: 0.0082
column_min: 0.3058
column_max: 0.0000
column_range: 0.0429
d_valence_electrons_fwa: 0.0571
d_valence_electrons_fwd: 0.0045
d_valence_electrons_min: 0.0000
d_valence_electrons_max: 0.1207
d_valence_electrons_range: 0.0834
d_unfilled_states_fwa: -0.0030
d_unfilled_states_fwd: -0.0139
d_unfilled_states_min: 0.0000
d_unfilled_states_max: 0.0669
d_unfilled_states_range: 0.0265
s_unfilled_states_fwa: -0.0009
s_unfilled_states_fwd: -0.0000
s_unfilled_states_min: 0.0000
s_unfilled_states_max: -0.0005
s_unfilled_states_range: -0.0003
p_unfilled_states_fwa: 0.0001
p_unfilled_states_fwd: -0.0003
p_unfilled_states_min: 0.0059
p_unfilled_states_max: -0.0016
p_unfilled_states_range: -0.0000
d_unfilled_states_fwa: 0.0055
d_unfilled_states_fwd: -0.0133
d_unfilled_states_min: 0.0000
d_unfilled_states_max: 0.1182
d_unfilled_states_range: 0.1772
f_unfilled_states_fwa: 0.0023
f_unfilled_states_fwd: 0.0024
f_unfilled_states_min: 0.0000
f_unfilled_states_max: 0.1991
f_unfilled_states_range: 0.0038
s_valence_electrons_fwa: -0.0010
s_valence_electrons_fwd: -0.0059
s_valence_electrons_min: 0.0000
s_valence_electrons_max: 0.0061
s_valence_electrons_range: 0.0577
p_valence_electrons_fwa: 0.0070
p_valence_electrons_fwd: -0.0007
p_valence_electrons_min: 0.0000
p_valence_electrons_max: 0.0959
p_valence_electrons_range: 0.0152
d_valence_electrons_fwa: 0.0256
d_valence_electrons_fwd: 0.0461
d_valence_electrons_min: 0.0000
d_valence_electrons_max: 0.0353
d_valence_electrons_range: 0.0177
f_valence_electrons_fwa: -0.0026
f_valence_electrons_fwd: 0.0156
f_valence_electrons_min: 0.0000
f_valence_electrons_max: 0.0046
f_valence_electrons_range: 0.0245
atomic_weight_fwa: 0.4142
atomic_weight_fwd: 0.3661
atomic_weight_min: 0.0733
atomic_weight_max: 9.7992
atomic_weight_range: 13.0368
covalent_radius_fwa: 0.0000
covalent_radius_fwd: 0.0001
covalent_radius_min: 0.0001
covalent_radius_max: 0.0005
covalent_radius_range: -0.0005
electronegativity_fwa: -0.0009
electronegativity_fwd: 0.0008
electronegativity_min: -0.0009
electronegativity_max: 0.0000
electronegativity_range: 0.0017
melting_point_fwa: 92.0605
melting_point_fwd: 61.6591
melting_point_min: 0.4583
melting_point_max: 827.8223
melting_point_range: 1409.9358
molar_volume_fwa: 0.0173
molar_volume_fwd: 0.0842
molar_volume_min: 0.0150
molar_volume_max: 0.0464
molar_volume_range: 0.1422
mendeleev_number_fwa: 0.4240
mendeleev_number_fwd: 1.2297
mendeleev_number_min: 0.7397
mendeleev_number_max: 0.0000
mendeleev_number_range: 1.3301