Lp_norm_p2: 0.0002
Lp_norm_p3: 0.0003
Lp_norm_p5: 0.0003
Lp_norm_p7: 0.0004
atomic_number_fwa: 0.0001
atomic_number_std: 0.0000
atomic_number_min: 0.0000
atomic_number_max: 0.0000
atomic_number_range: 0.0000
row_fwa: 0.0004
row_std: 0.0000
row_min: 0.0000
row_max: 0.0000
row_range: 0.0000
column_fwa: 0.0007
column_std: 0.0045
column_min: 0.0064
column_max: 0.0000
column_range: 0.0034
d_valence_electrons_fwa: 0.0000
d_valence_electrons_fwd: 0.0000
d_valence_electrons_min: 0.0000
d_valence_electrons_max: 0.0001
d_valence_electrons_range: 0.0002
d_unfilled_states_fwa: 0.0000
d_unfilled_states_fwd: 0.0000
d_unfilled_states_min: 0.0000
d_unfilled_states_max: 0.0001
d_unfilled_states_range: 0.0001
s_unfilled_states_fwa: 0.0003
s_unfilled_states_fwd: 0.0006
s_unfilled_states_min: 0.0000
s_unfilled_states_max: 0.0006
s_unfilled_states_range: 0.0011
p_unfilled_states_fwa: 0.0002
p_unfilled_states_fwd: 0.0004
p_unfilled_states_min: 0.0001
p_unfilled_states_max: 0.0000
p_unfilled_states_range: 0.0000
d_unfilled_states_fwa: 0.0001
d_unfilled_states_fwd: 0.0000
d_unfilled_states_min: 0.0000
d_unfilled_states_max: 0.0001
d_unfilled_states_range: 0.0001
f_unfilled_states_fwa: 0.0000
f_unfilled_states_fwd: 0.0000
f_unfilled_states_min: 0.0000
f_unfilled_states_max: 0.0000
f_unfilled_states_range: 0.0001
s_valence_electrons_fwa: 0.0000
s_valence_electrons_fwd: 0.0000
s_valence_electrons_min: 0.0000
s_valence_electrons_max: 0.0001
s_valence_electrons_range: 0.0002
p_valence_electrons_fwa: 0.0000
p_valence_electrons_fwd: 0.0000
p_valence_electrons_min: 0.0000
p_valence_electrons_max: 0.0002
p_valence_electrons_range: 0.0002
d_valence_electrons_fwa: 0.0000
d_valence_electrons_fwd: 0.0000
d_valence_electrons_min: 0.0000
d_valence_electrons_max: 0.0003
d_valence_electrons_range: 0.0002
f_valence_electrons_fwa: 0.0000
f_valence_electrons_fwd: 0.0000
f_valence_electrons_min: 0.0000
f_valence_electrons_max: 0.0003
f_valence_electrons_range: 0.0005
atomic_weight_fwa: 0.0001
atomic_weight_fwd: 0.0000
atomic_weight_min: 0.0000
atomic_weight_max: 0.0000
atomic_weight_range: 0.0000
covalent_radius_fwa: 0.0002
covalent_radius_fwd: 0.0001
covalent_radius_min: 0.0000
covalent_radius_max: 0.0001
covalent_radius_range: 0.0001
electronegativity_fwa: 0.0004
electronegativity_fwd: 0.0005
electronegativity_min: 0.0008
electronegativity_max: 0.0000
electronegativity_range: 0.0015
melting_point_fwa: 0.0004
melting_point_fwd: 0.0002
melting_point_min: 0.0000
melting_point_max: 0.0001
melting_point_range: 0.0001
molar_volume_fwa: 0.0001
molar_volume_fwd: 0.0000
molar_volume_min: 0.0018
molar_volume_max: 0.0001
molar_volume_range: 0.0000
mendeleev_number_fwa: 0.0003
mendeleev_number_fwd: 0.0024
mendeleev_number_min: 0.0043
mendeleev_number_max: 0.0000
mendeleev_number_range: 0.0048